                         Program Version 5.0.4 -  RELEASE  -
|  1> ## avogadro generated ORCA input file
|  2> # Advanced Mode
|  3> #
|  4> ! B3LYP OPT def2-SVP NormalPrint defgrid2 NormalSCF
|  5>
|  6> ! CPCM
|  7> %cpcm
|  8> epsilon 69.0
|  9> refrac 1.34
| 10> end
| 11>
| 12> %scf
| 13> 	MaxIter 125
| 14> 	CNVDIIS 1
| 15> 	CNVSOSCF 1
| 16> end
| 17>
| 18> * xyz 0 1
| 19>    C       -1.19405        0.00800        0.00106
| 20>    C       -0.37037        1.11158        0.00054
| 21>    N        0.92753        0.67121       -0.00006
| 22>    C        0.94169       -0.69929        0.00007
| 23>    C       -0.36356       -1.13822        0.00075
| 24>    H       -2.27620        0.02619        0.00159
| 25>    H       -0.59577        2.16951        0.00055
| 26>    H        1.74697        1.26493       -0.00052
| 27>    H        1.87677       -1.24302       -0.00034
| 28>    H       -0.68337       -2.17220        0.00101
| 29> *
| 30>
| 31>
| 32>                          ****END OF INPUT****
 Total Charge           Charge          ....    0
 Multiplicity           Mult            ....    1
 Number of Electrons    NEL             ....   36
FINAL SINGLE POINT ENERGY      -209.897174428501
FINAL SINGLE POINT ENERGY      -209.897643837699
FINAL SINGLE POINT ENERGY      -209.897663476730
                    ***********************HURRAY********************

CARTESIAN COORDINATES (ANGSTROEM)
---------------------------------
  C     -1.201870    0.010801    0.001050
  C     -0.369584    1.119283    0.000547
  N      0.926443    0.670468   -0.000056
  C      0.949167   -0.700992    0.000060
  C     -0.363308   -1.146724    0.000762
  H     -2.291552    0.031192    0.001580
  H     -0.595194    2.184413    0.000559
  H      1.748007    1.265708   -0.000523
  H      1.891134   -1.246986   -0.000359
  H     -0.683602   -2.188471    0.001029

 Multiplicity           Mult            ....    1
 Number of Electrons    NEL             ....   36
 Basis Dimension        Dim             ....   95

ORBITAL ENERGIES
----------------

  NO   OCC          E(Eh)            E(eV)
   0   2.0000     -14.363523      -390.8513
   1   2.0000     -10.198129      -277.5052
   2   2.0000     -10.198126      -277.5051
   3   2.0000     -10.165072      -276.6057
   4   2.0000     -10.164847      -276.5996
   5   2.0000      -0.958031       -26.0694
   6   2.0000      -0.754958       -20.5435
   7   2.0000      -0.704329       -19.1658
   8   2.0000      -0.574141       -15.6232
   9   2.0000      -0.554359       -15.0849
  10   2.0000      -0.530073       -14.4240
  11   2.0000      -0.422003       -11.4833
  12   2.0000      -0.413472       -11.2512
  13   2.0000      -0.402546       -10.9538
  14   2.0000      -0.382818       -10.4170
  15   2.0000      -0.369137       -10.0447
  16   2.0000      -0.243170        -6.6170
  17   2.0000      -0.212119        -5.7721
  18   0.0000       0.039952         1.0872
  19   0.0000       0.072724         1.9789
  20   0.0000       0.078048         2.1238
  21   0.0000       0.117088         3.1861
  22   0.0000       0.127890         3.4801

MULLIKEN ATOMIC CHARGES
-----------------------
   0 C :   -0.069458
   1 C :    0.013064
   2 N :   -0.068086
   3 C :    0.013162
   4 C :   -0.068897
   5 H :   -0.006937
   6 H :    0.016468
   7 H :    0.161297
   8 H :    0.016308
   9 H :   -0.006921
Sum of atomic charges:    0.0000000

LOEWDIN ATOMIC CHARGES
----------------------
   0 C :   -0.110835
   1 C :   -0.039114
   2 N :    0.090216
   3 C :   -0.039006
   4 C :   -0.110786
   5 H :    0.024039
   6 H :    0.026454
   7 H :    0.108521
   8 H :    0.026434
   9 H :    0.024077

  Mayer bond orders larger than 0.100000
B(  0-C ,  1-C ) :   1.4761 B(  0-C ,  4-C ) :   1.2939 B(  0-C ,  5-H ) :   1.0076
B(  1-C ,  2-N ) :   1.2396 B(  1-C ,  6-H ) :   0.9941 B(  2-N ,  3-C ) :   1.2395
B(  2-N ,  7-H ) :   0.9329 B(  3-C ,  4-C ) :   1.4759 B(  3-C ,  8-H ) :   0.9942
B(  4-C ,  9-H ) :   1.0076

FINAL SINGLE POINT ENERGY      -209.897665113262

DIPOLE MOMENT
-------------
                                X             Y             Z
Electronic contribution:      0.88767       0.64258      -0.00050
Nuclear contribution   :     -0.01492      -0.01055       0.00000
                        -----------------------------------------
Total Dipole Moment    :      0.87275       0.63203      -0.00049
                        -----------------------------------------
Magnitude (a.u.)       :      1.07757
Magnitude (Debye)      :      2.73897

Rotational constants in cm-1:     0.304023     0.297800     0.150440
Rotational constants in MHz :  9114.383891  8927.833106  4510.072031

                             ****ORCA TERMINATED NORMALLY****
TOTAL RUN TIME: 0 days 0 hours 7 minutes 14 seconds 694 msec
