                         Program Version 5.0.4 -  RELEASE  -
|  1> ## avogadro generated ORCA input file
|  2> # Advanced Mode
|  3> #
|  4> ! B3LYP OPT def2-SVP NormalPrint defgrid2 NormalSCF
|  5>
|  6> ! CPCM
|  7> %cpcm
|  8> epsilon 69.0
|  9> refrac 1.34
| 10> end
| 11>
| 12> %scf
| 13> 	MaxIter 125
| 14> 	CNVDIIS 1
| 15> 	CNVSOSCF 1
| 16> end
| 17>
| 18> * xyz -8 1
| 19>   Cl        2.82569       -1.62915       -0.50434
| 20>   Cl       -0.43201        2.03115        0.75569
| 21>   Ca        1.19683        0.20100        0.12567
| 22> *
| 23>
| 24>
| 25>                          ****END OF INPUT****
 Total Charge           Charge          ....   -8
 Multiplicity           Mult            ....    1
 Number of Electrons    NEL             ....   62
FINAL SINGLE POINT ENERGY     -1597.272765598534
FINAL SINGLE POINT ENERGY     -1597.276043390319
FINAL SINGLE POINT ENERGY     -1597.283521118812
FINAL SINGLE POINT ENERGY     -1597.356943424178
FINAL SINGLE POINT ENERGY     -1597.365732257436
FINAL SINGLE POINT ENERGY     -1597.374378959427
FINAL SINGLE POINT ENERGY     -1597.382272644032
FINAL SINGLE POINT ENERGY     -1597.388657408589
FINAL SINGLE POINT ENERGY     -1597.394233239119
FINAL SINGLE POINT ENERGY     -1597.399421121047
FINAL SINGLE POINT ENERGY     -1597.502824380681
FINAL SINGLE POINT ENERGY     -1597.502991555587
FINAL SINGLE POINT ENERGY     -1597.503110103090
FINAL SINGLE POINT ENERGY     -1597.503177314179
FINAL SINGLE POINT ENERGY     -1597.503230439919
FINAL SINGLE POINT ENERGY     -1597.503278431748
FINAL SINGLE POINT ENERGY     -1597.503300109805
FINAL SINGLE POINT ENERGY     -1597.503298321342
FINAL SINGLE POINT ENERGY     -1597.503299047836
                    ***********************HURRAY********************

CARTESIAN COORDINATES (ANGSTROEM)
---------------------------------
  Cl     5.257159   -4.337931   -1.426923
  Cl    -2.836601    4.756018    1.703566
  Ca     1.169953    0.184913    0.100377

 Multiplicity           Mult            ....    1
 Number of Electrons    NEL             ....   62
 Basis Dimension        Dim             ....   60

ORBITAL ENERGIES
----------------

  NO   OCC          E(Eh)            E(eV)
   0   2.0000    -144.950476     -3944.3030
   1   2.0000    -101.311193     -2756.8177
   2   2.0000    -101.311187     -2756.8176
   3   2.0000     -15.037812      -409.1997
   4   2.0000     -12.171695      -331.2087
   5   2.0000     -12.171694      -331.2086
   6   2.0000     -12.171550      -331.2047
   7   2.0000      -9.262695      -252.0507
   8   2.0000      -9.262691      -252.0506
   9   2.0000      -7.025921      -191.1850
  10   2.0000      -7.025918      -191.1849
  11   2.0000      -7.025814      -191.1821
  12   2.0000      -7.025809      -191.1820
  13   2.0000      -7.025657      -191.1779
  14   2.0000      -7.025657      -191.1779
  15   2.0000      -1.455758       -39.6132
  16   2.0000      -0.737649       -20.0724
  17   2.0000      -0.737643       -20.0723
  18   2.0000      -0.737283       -20.0625
  19   2.0000      -0.622165       -16.9300
  20   2.0000      -0.622145       -16.9294
  21   2.0000      -0.175413        -4.7732
  22   2.0000      -0.174730        -4.7547
  23   2.0000      -0.174722        -4.7544
  24   2.0000      -0.174707        -4.7540
  25   2.0000      -0.174702        -4.7539
  26   2.0000      -0.174629        -4.7519
  27   2.0000      -0.058177        -1.5831
  28   2.0000       0.054899         1.4939
  29   2.0000       0.054994         1.4965
  30   2.0000       0.055146         1.5006
  31   0.0000       0.137476         3.7409
  32   0.0000       0.142432         3.8758
  33   0.0000       0.143307         3.8996
  34   0.0000       0.160686         4.3725
  35   0.0000       0.160741         4.3740

MULLIKEN ATOMIC CHARGES
-----------------------
   0 Cl:   -0.997152
   1 Cl:   -0.997158
   2 Ca:   -6.005690
Sum of atomic charges:   -8.0000000

LOEWDIN ATOMIC CHARGES
----------------------
   0 Cl:   -0.998622
   1 Cl:   -0.998626
   2 Ca:   -6.002753

FINAL SINGLE POINT ENERGY     -1597.503299030634

DIPOLE MOMENT
-------------
                                X             Y             Z
Electronic contribution:      0.26515       0.16809       0.25480
Nuclear contribution   :     -0.03804      -0.02276      -0.03579
                        -----------------------------------------
Total Dipole Moment    :      0.22711       0.14532       0.21901
                        -----------------------------------------
Magnitude (a.u.)       :      0.34736
Magnitude (Debye)      :      0.88292

Rotational constants in cm-1:   180.500399     0.006019     0.006018
Rotational constants in MHz : 5411265.834545   180.431871   180.425855

                             ****ORCA TERMINATED NORMALLY****
TOTAL RUN TIME: 0 days 1 hours 12 minutes 9 seconds 89 msec
