                         Program Version 5.0.4 -  RELEASE  -
|  1> ## avogadro generated ORCA input file
|  2> # Advanced Mode
|  3> #
|  4> ! B3LYP OPT def2-SVP NormalPrint defgrid2 NormalSCF
|  5>
|  6> ! CPCM
|  7> %cpcm
|  8> epsilon 69.0
|  9> refrac 1.34
| 10> end
| 11>
| 12> %scf
| 13> 	MaxIter 125
| 14> 	CNVDIIS 1
| 15> 	CNVSOSCF 1
| 16> end
| 17>
| 18> * xyz -10 1
| 19>    O        0.94029        0.07810        0.72640
| 20>    S        2.22173        0.18293        0.02726
| 21>    O        3.14176       -0.66796        0.78318
| 22>    O        2.11239       -0.24583       -1.36776
| 23>    O        2.69245        1.56737       -0.03280
| 24>   Na        1.67891       -1.25253        2.21218
| 25>   Na        2.76410        1.61822       -2.15788
| 26> *
| 27>
| 28>
| 29>                          ****END OF INPUT****
 Total Charge           Charge          ....  -10
 Multiplicity           Mult            ....    1
 Number of Electrons    NEL             ....   80
 Basis Dimension        Dim             ....  104

ORBITAL ENERGIES
----------------

  NO   OCC          E(Eh)            E(eV)
   0   2.0000     -88.943549     -2420.2770
   1   2.0000     -38.213619     -1039.8454
   2   2.0000     -38.121790     -1037.3466
   3   2.0000     -18.970016      -516.2004
   4   2.0000     -18.969989      -516.1997
   5   2.0000     -18.952575      -515.7258
   6   2.0000     -18.951964      -515.7092
   7   2.0000      -8.000541      -217.7058
   8   2.0000      -5.969696      -162.4437
   9   2.0000      -5.968971      -162.4240
  10   2.0000      -5.968744      -162.4178
  11   2.0000      -1.987808       -54.0910
  12   2.0000      -1.905533       -51.8522
  13   2.0000      -1.022161       -27.8144
  14   2.0000      -0.925252       -25.1774
  15   2.0000      -0.924247       -25.1500
  16   2.0000      -0.918784       -25.0014
  17   2.0000      -0.860496       -23.4153
  18   2.0000      -0.843912       -22.9640
  19   2.0000      -0.840700       -22.8766
  20   2.0000      -0.837988       -22.8028
  21   2.0000      -0.828069       -22.5329
  22   2.0000      -0.820897       -22.3377
  23   2.0000      -0.425542       -11.5796
  24   2.0000      -0.350858        -9.5473
  25   2.0000      -0.345695        -9.4068
  26   2.0000      -0.339685        -9.2433
  27   2.0000      -0.240937        -6.5562
  28   2.0000      -0.224369        -6.1054
  29   2.0000      -0.213967        -5.8223
  30   2.0000      -0.213310        -5.8045
  31   2.0000      -0.208429        -5.6716
  32   2.0000      -0.141397        -3.8476
  33   2.0000      -0.134113        -3.6494
  34   2.0000      -0.128820        -3.5054
  35   2.0000      -0.049943        -1.3590
  36   2.0000      -0.039450        -1.0735
  37   2.0000       0.016117         0.4386
  38   2.0000       0.034125         0.9286
  39   2.0000       0.048447         1.3183
  40   0.0000       0.086352         2.3497
  41   0.0000       0.090096         2.4517
  42   0.0000       0.136191         3.7060
  43   0.0000       0.199869         5.4387
  44   0.0000       0.236037         6.4229

MULLIKEN ATOMIC CHARGES
-----------------------
   0 O :   -0.664631
   1 S :    1.156682
   2 O :   -0.665266
   3 O :   -0.595830
   4 O :   -0.592576
   5 Na:   -3.319091
   6 Na:   -5.319288
Sum of atomic charges:  -10.0000000

LOEWDIN ATOMIC CHARGES
----------------------
   0 O :   -0.533777
   1 S :    1.219986
   2 O :   -0.534196
   3 O :   -0.521952
   4 O :   -0.523863
   5 Na:   -3.619503
   6 Na:   -5.486695

  Mayer bond orders larger than 0.100000
B(  0-O ,  1-S ) :   1.3581 B(  0-O ,  5-Na) :   0.2673 B(  1-S ,  2-O ) :   1.3575
B(  1-S ,  3-O ) :   1.4519 B(  1-S ,  4-O ) :   1.4559 B(  2-O ,  5-Na) :   0.2674
B(  3-O ,  6-Na) :   0.1224 B(  4-O ,  6-Na) :   0.1100

FINAL SINGLE POINT ENERGY     -1023.086609597971
FINAL SINGLE POINT ENERGY     -1023.103139052870
FINAL SINGLE POINT ENERGY     -1023.119643810498
FINAL SINGLE POINT ENERGY     -1023.130378032487
FINAL SINGLE POINT ENERGY     -1023.140003282898
FINAL SINGLE POINT ENERGY     -1023.150018821546
FINAL SINGLE POINT ENERGY     -1023.159622043762
FINAL SINGLE POINT ENERGY     -1023.167425878343
FINAL SINGLE POINT ENERGY     -1023.174358452321
FINAL SINGLE POINT ENERGY     -1023.180826016572
FINAL SINGLE POINT ENERGY     -1023.269544875798
FINAL SINGLE POINT ENERGY     -1023.270448847264
FINAL SINGLE POINT ENERGY     -1023.271239749327
FINAL SINGLE POINT ENERGY     -1023.271590217284
FINAL SINGLE POINT ENERGY     -1023.271960516494
FINAL SINGLE POINT ENERGY     -1023.272020920332
FINAL SINGLE POINT ENERGY     -1023.272059098394
FINAL SINGLE POINT ENERGY     -1023.272176342469
FINAL SINGLE POINT ENERGY     -1023.272458059479

CARTESIAN COORDINATES (ANGSTROEM)
---------------------------------
  O      0.818068    0.034932    0.845130
  S      2.196496    0.082242    0.212975
  O      3.138260   -0.824835    1.001081
  O      2.121683   -0.397567   -1.218995
  O      2.730970    1.515757    0.193161
  Na     1.346290   -2.175776    3.540787
  Na     3.199862    3.045548   -4.383559

FINAL SINGLE POINT ENERGY     -1023.272904737319

DIPOLE MOMENT
-------------
                                X             Y             Z
Electronic contribution:     -3.41574     -11.14337      17.72808
Nuclear contribution   :     -0.09757      -0.43459       0.76403
                        -----------------------------------------
Total Dipole Moment    :     -3.51331     -11.57796      18.49212
                        -----------------------------------------
Magnitude (a.u.)       :     22.09866
Magnitude (Debye)      :     56.17034

Rotational constants in cm-1:     0.172743     0.013836     0.013826
Rotational constants in MHz :  5178.693071   414.781627   414.480141

                             ****ORCA TERMINATED NORMALLY****
TOTAL RUN TIME: 0 days 1 hours 14 minutes 43 seconds 715 msec
