                         Program Version 5.0.4 -  RELEASE  -
|  1> ## avogadro generated ORCA input file
|  2> # Advanced Mode
|  3> #
|  4> ! B3LYP OPT def2-SVP NormalPrint defgrid2 NormalSCF
|  5>
|  6> ! CPCM
|  7> %cpcm
|  8> epsilon 69.0
|  9> refrac 1.34
| 10> end
| 11>
| 12> %scf
| 13> 	MaxIter 125
| 14> 	CNVDIIS 1
| 15> 	CNVSOSCF 1
| 16> end
| 17>
| 18> * xyz -8 1
| 19>    O        1.50388        0.55326       -0.35153
| 20>    S        2.94455        0.21813       -0.16607
| 21>    O        2.63969       -0.96672        0.68564
| 22>    O        3.53155       -0.19455       -1.41369
| 23>    O        3.60491        1.23802        0.60543
| 24>   Mg        0.90656       -0.77403        0.61170
| 25> *
| 26>
| 27>
| 28>                          ****END OF INPUT****
 Total Charge           Charge          ....   -8
 Multiplicity           Mult            ....    1
 Number of Electrons    NEL             ....   68
 Basis Dimension        Dim             ....   92

ORBITAL ENERGIES
----------------

  NO   OCC          E(Eh)            E(eV)
   0   2.0000     -88.978523     -2421.2287
   1   2.0000     -46.546184     -1266.5860
   2   2.0000     -19.008074      -517.2360
   3   2.0000     -19.007962      -517.2329
   4   2.0000     -18.972724      -516.2741
   5   2.0000     -18.972625      -516.2714
   6   2.0000      -8.036109      -218.6736
   7   2.0000      -6.005115      -163.4075
   8   2.0000      -6.004550      -163.3921
   9   2.0000      -6.004299      -163.3853
  10   2.0000      -2.860899       -77.8490
  11   2.0000      -1.610348       -43.8198
  12   2.0000      -1.606207       -43.7071
  13   2.0000      -1.605337       -43.6834
  14   2.0000      -1.059483       -28.8300
  15   2.0000      -0.894285       -24.3347
  16   2.0000      -0.892242       -24.2791
  17   2.0000      -0.846596       -23.0370
  18   2.0000      -0.466967       -12.7068
  19   2.0000      -0.391290       -10.6475
  20   2.0000      -0.381517       -10.3816
  21   2.0000      -0.381354       -10.3772
  22   2.0000      -0.288673        -7.8552
  23   2.0000      -0.266488        -7.2515
  24   2.0000      -0.261124        -7.1056
  25   2.0000      -0.254733        -6.9316
  26   2.0000      -0.235639        -6.4121
  27   2.0000      -0.177680        -4.8349
  28   2.0000      -0.171219        -4.6591
  29   2.0000      -0.169630        -4.6159
  30   2.0000      -0.060820        -1.6550
  31   2.0000       0.020276         0.5517
  32   2.0000       0.040258         1.0955
  33   2.0000       0.056758         1.5445
  34   0.0000       0.197247         5.3674
  35   0.0000       0.232069         6.3149
  36   0.0000       0.235755         6.4152
  37   0.0000       0.247704         6.7404
  38   0.0000       0.252358         6.8670

MULLIKEN ATOMIC CHARGES
-----------------------
   0 O :   -0.643558
   1 S :    1.432975
   2 O :   -0.642923
   3 O :   -0.626893
   4 O :   -0.627602
   5 Mg:   -6.891998
Sum of atomic charges:   -8.0000000

LOEWDIN ATOMIC CHARGES
----------------------
   0 O :   -0.488633
   1 S :    1.178095
   2 O :   -0.488471
   3 O :   -0.669075
   4 O :   -0.669006
   5 Mg:   -6.862910

  Mayer bond orders larger than 0.100000
B(  0-O ,  1-S ) :   1.2615 B(  0-O ,  5-Mg) :   0.3172 B(  1-S ,  2-O ) :   1.2616
B(  1-S ,  3-O ) :   1.5947 B(  1-S ,  4-O ) :   1.5945 B(  1-S ,  5-Mg) :  -0.5977
B(  2-O ,  5-Mg) :   0.3168

FINAL SINGLE POINT ENERGY      -898.489352286869
FINAL SINGLE POINT ENERGY      -898.525333152437
FINAL SINGLE POINT ENERGY      -898.562908468856
FINAL SINGLE POINT ENERGY      -898.587392482759
FINAL SINGLE POINT ENERGY      -898.604353463247
FINAL SINGLE POINT ENERGY      -898.617501701180
FINAL SINGLE POINT ENERGY      -898.628937740959
FINAL SINGLE POINT ENERGY      -898.638693258115
FINAL SINGLE POINT ENERGY      -898.646756215269
FINAL SINGLE POINT ENERGY      -898.654808577541
FINAL SINGLE POINT ENERGY      -898.736349793241
FINAL SINGLE POINT ENERGY      -898.736352119756
FINAL SINGLE POINT ENERGY      -898.736352262698
FINAL SINGLE POINT ENERGY      -898.736357421353
FINAL SINGLE POINT ENERGY      -898.736358144874
FINAL SINGLE POINT ENERGY      -898.736547722530
FINAL SINGLE POINT ENERGY      -898.737350041506
FINAL SINGLE POINT ENERGY      -898.738982072543
FINAL SINGLE POINT ENERGY      -898.739343588336

CARTESIAN COORDINATES (ANGSTROEM)
---------------------------------
  O      1.650642    0.679811   -0.459261
  S      3.077039    0.258427   -0.198121
  O      3.164657   -0.981196    0.671363
  O      3.766725   -0.026157   -1.532555
  O      3.819987    1.396193    0.504858
  Mg    -0.347911   -1.252967    0.985195

FINAL SINGLE POINT ENERGY      -898.739966044277

DIPOLE MOMENT
-------------
                                X             Y             Z
Electronic contribution:     28.73431      12.88062     -10.13299
Nuclear contribution   :      0.77431       0.33880      -0.26448
                        -----------------------------------------
Total Dipole Moment    :     29.50862      13.21942     -10.39747
                        -----------------------------------------
Magnitude (a.u.)       :     33.96497
Magnitude (Debye)      :     86.33209

Rotational constants in cm-1:     0.170477     0.040978     0.040783
Rotational constants in MHz :  5110.777533  1228.491501  1222.649281

                             ****ORCA TERMINATED NORMALLY****
TOTAL RUN TIME: 0 days 0 hours 56 minutes 26 seconds 97 msec
