                         Program Version 5.0.4 -  RELEASE  -
|  1> ## avogadro generated ORCA input file
|  2> # Advanced Mode
|  3> #
|  4> ! B3LYP OPT def2-SVP NormalPrint defgrid2 NormalSCF
|  5>
|  6> ! CPCM
|  7> %cpcm
|  8> epsilon 69.0
|  9> refrac 1.34
| 10> end
| 11>
| 12> %scf
| 13> 	MaxIter 125
| 14> 	CNVDIIS 1
| 15> 	CNVSOSCF 1
| 16> end
| 17>
| 18> * xyz -8 1
| 19>    O        1.29781       -0.07053        0.66720
| 20>    S        2.72462       -0.13248        0.30105
| 21>    O        3.67441       -0.16539        1.37531
| 22>    O        2.72304       -1.27576       -0.62985
| 23>    O        2.81795        0.99514       -0.64417
| 24>   Ca        1.04580       -0.07421       -1.59768
| 25> *
| 26>
| 27>
| 28>                          ****END OF INPUT****
 Total Charge           Charge          ....   -8
 Multiplicity           Mult            ....    1
 Number of Electrons    NEL             ....   76
 Basis Dimension        Dim             ....   98

ORBITAL ENERGIES
----------------

  NO   OCC          E(Eh)            E(eV)
   0   2.0000    -144.951242     -3944.3238
   1   2.0000     -88.959904     -2420.7221
   2   2.0000     -19.018773      -517.5271
   3   2.0000     -18.969600      -516.1890
   4   2.0000     -18.969469      -516.1855
   5   2.0000     -18.969406      -516.1838
   6   2.0000     -15.025222      -408.8571
   7   2.0000     -12.161351      -330.9272
   8   2.0000     -12.159247      -330.8699
   9   2.0000     -12.159208      -330.8689
  10   2.0000      -8.018190      -218.1860
  11   2.0000      -5.987257      -162.9215
  12   2.0000      -5.986360      -162.8971
  13   2.0000      -5.986339      -162.8966
  14   2.0000      -1.430343       -38.9216
  15   2.0000      -1.045280       -28.4435
  16   2.0000      -0.901088       -24.5198
  17   2.0000      -0.841049       -22.8861
  18   2.0000      -0.840997       -22.8847
  19   2.0000      -0.711211       -19.3530
  20   2.0000      -0.707133       -19.2421
  21   2.0000      -0.707059       -19.2400
  22   2.0000      -0.447420       -12.1749
  23   2.0000      -0.371405       -10.1065
  24   2.0000      -0.362163        -9.8550
  25   2.0000      -0.362094        -9.8531
  26   2.0000      -0.256718        -6.9857
  27   2.0000      -0.256697        -6.9851
  28   2.0000      -0.236773        -6.4429
  29   2.0000      -0.221347        -6.0231
  30   2.0000      -0.221328        -6.0226
  31   2.0000      -0.156870        -4.2686
  32   2.0000      -0.156850        -4.2681
  33   2.0000      -0.129291        -3.5182
  34   2.0000      -0.024538        -0.6677
  35   2.0000       0.089130         2.4253
  36   2.0000       0.089288         2.4297
  37   2.0000       0.102696         2.7945
  38   0.0000       0.177989         4.8433
  39   0.0000       0.184667         5.0250
  40   0.0000       0.185137         5.0378
  41   0.0000       0.253650         6.9022
  42   0.0000       0.254033         6.9126

MULLIKEN ATOMIC CHARGES
-----------------------
   0 O :   -0.611238
   1 S :    0.871633
   2 O :   -0.622266
   3 O :   -0.611805
   4 O :   -0.611500
   5 Ca:   -6.414825
Sum of atomic charges:   -8.0000000

LOEWDIN ATOMIC CHARGES
----------------------
   0 O :   -0.563559
   1 S :    1.034361
   2 O :   -0.673232
   3 O :   -0.563842
   4 O :   -0.563551
   5 Ca:   -6.670177

  Mayer bond orders larger than 0.100000
B(  0-O ,  1-S ) :   1.3835 B(  0-O ,  5-Ca) :   0.3120 B(  1-S ,  2-O ) :   1.5337
B(  1-S ,  3-O ) :   1.3822 B(  1-S ,  4-O ) :   1.3834 B(  1-S ,  5-Ca) :   0.1446
B(  3-O ,  5-Ca) :   0.3131 B(  4-O ,  5-Ca) :   0.3122

FINAL SINGLE POINT ENERGY     -1375.764708170380
FINAL SINGLE POINT ENERGY     -1375.792357397786
FINAL SINGLE POINT ENERGY     -1375.814282949412
FINAL SINGLE POINT ENERGY     -1375.827682090043
FINAL SINGLE POINT ENERGY     -1375.837956983142
FINAL SINGLE POINT ENERGY     -1375.847871926329
FINAL SINGLE POINT ENERGY     -1375.857595752018
FINAL SINGLE POINT ENERGY     -1375.865280563818
FINAL SINGLE POINT ENERGY     -1375.871215021668
FINAL SINGLE POINT ENERGY     -1375.876566900845
FINAL SINGLE POINT ENERGY     -1375.934878678173
FINAL SINGLE POINT ENERGY     -1375.934974674152
FINAL SINGLE POINT ENERGY     -1375.934998506834
FINAL SINGLE POINT ENERGY     -1375.935015624857
FINAL SINGLE POINT ENERGY     -1375.935072699551
FINAL SINGLE POINT ENERGY     -1375.935079900360
FINAL SINGLE POINT ENERGY     -1375.935100852100
FINAL SINGLE POINT ENERGY     -1375.935134134292
FINAL SINGLE POINT ENERGY     -1375.935135035375

CARTESIAN COORDINATES (ANGSTROEM)
---------------------------------
  O      1.435565   -0.041246    0.890441
  S      2.875436   -0.126330    0.429579
  O      3.776261   -0.204086    1.659802
  O      3.097631   -1.370437   -0.409946
  O      3.245387    1.116552   -0.358919
  Ca    -0.146651   -0.097683   -2.739097

FINAL SINGLE POINT ENERGY     -1375.935170385957

DIPOLE MOMENT
-------------
                                X             Y             Z
Electronic contribution:     22.08975      -0.11330      23.45127
Nuclear contribution   :      0.11690      -0.00138       0.12309
                        -----------------------------------------
Total Dipole Moment    :     22.20665      -0.11467      23.57436
                        -----------------------------------------
Magnitude (a.u.)       :     32.38671
Magnitude (Debye)      :     82.32047

Rotational constants in cm-1:     0.169729     0.025392     0.025376
Rotational constants in MHz :  5088.336058   761.224818   760.755577

                             ****ORCA TERMINATED NORMALLY****
TOTAL RUN TIME: 0 days 1 hours 21 minutes 17 seconds 521 msec
