                         Program Version 5.0.4 -  RELEASE  -
|  1> ## avogadro generated ORCA input file
|  2> # Advanced Mode
|  3> #
|  4> ! B3LYP OPT def2-SVP NormalPrint defgrid2 NormalSCF
|  5>
|  6> ! CPCM
|  7> %cpcm
|  8> epsilon 69.0
|  9> refrac 1.34
| 10> end
| 11>
| 12> %scf
| 13> 	MaxIter 125
| 14> 	CNVDIIS 1
| 15> 	CNVSOSCF 1
| 16> end
| 17>
| 18> * xyz 0 1
| 19>    C        1.06638        0.09433       -0.07344
| 20>    N        2.50689        0.06312       -0.07386
| 21>    C        3.33974        1.15079       -0.07559
| 22>    N        4.60831        0.79175       -0.07554
| 23>    C        4.57507       -0.57002       -0.07368
| 24>    C        3.30001       -1.04823       -0.07261
| 25>    C        2.98806       -2.43469       -0.07061
| 26>    O        1.83501       -2.85539       -0.06973
| 27>    N        4.12692       -3.24546       -0.06977
| 28>    C        5.46187       -2.78890       -0.07088
| 29>    O        6.40469       -3.58619       -0.07008
| 30>    N        5.66348       -1.40827       -0.07291
| 31>    C        7.00606       -0.85676       -0.07412
| 32>    C        3.94201       -4.68340       -0.06764
| 33>    H        0.72421        1.13244       -0.07453
| 34>    H        0.70751       -0.41061        0.82684
| 35>    H        0.70694       -0.41271       -0.97230
| 36>    H        2.97582        2.17070       -0.07684
| 37>    H        7.76877       -1.63981       -0.07352
| 38>    H        7.13934       -0.23879        0.81950
| 39>    H        7.13859       -0.24089       -0.96931
| 40>    H        2.88812       -4.97218       -0.06673
| 41>    H        4.42554       -5.10283        0.82078
| 42>    H        4.42471       -5.10536       -0.95530
| 43> *
| 44>
| 45>
| 46>                          ****END OF INPUT****
 Total Charge           Charge          ....    0
 Multiplicity           Mult            ....    1
 Number of Electrons    NEL             ....  102
FINAL SINGLE POINT ENERGY      -679.518416110756
FINAL SINGLE POINT ENERGY      -679.523170548981
FINAL SINGLE POINT ENERGY      -679.523831085198
FINAL SINGLE POINT ENERGY      -679.523901113427
FINAL SINGLE POINT ENERGY      -679.523913727311
                    ***********************HURRAY********************

CARTESIAN COORDINATES (ANGSTROEM)
---------------------------------
  C      1.028071    0.130649   -0.073457
  N      2.484460    0.084778   -0.073871
  C      3.333088    1.138991   -0.075664
  N      4.618908    0.786802   -0.075594
  C      4.587422   -0.567793   -0.073687
  C      3.285775   -1.046605   -0.072559
  C      2.968148   -2.445206   -0.070479
  O      1.844737   -2.939321   -0.069368
  N      4.141000   -3.241045   -0.069804
  C      5.471793   -2.786551   -0.070916
  O      6.398706   -3.585259   -0.070033
  N      5.673763   -1.412253   -0.072886
  C      7.027180   -0.861834   -0.074090
  C      3.985201   -4.697402   -0.067697
  H      0.713313    1.182198   -0.074680
  H      0.632057   -0.369782    0.821293
  H      0.631474   -0.372020   -0.966695
  H      2.963711    2.165557   -0.076975
  H      7.734643   -1.696734   -0.073560
  H      7.184499   -0.239116    0.819427
  H      7.183628   -0.240991   -0.969057
  H      2.913746   -4.919344   -0.067054
  H      4.459644   -5.131280    0.824441
  H      4.459081   -5.133801   -0.958906

 Multiplicity           Mult            ....    1
 Number of Electrons    NEL             ....  102
 Basis Dimension        Dim             ....  246

ORBITAL ENERGIES
----------------

  NO   OCC          E(Eh)            E(eV)
   0   2.0000     -19.114069      -520.1203
   1   2.0000     -19.110752      -520.0300
   2   2.0000     -14.401604      -391.8876
   3   2.0000     -14.386118      -391.4662
   4   2.0000     -14.380647      -391.3173
   5   2.0000     -14.325084      -389.8054
   6   2.0000     -10.328775      -281.0603
   7   2.0000     -10.306458      -280.4530
   8   2.0000     -10.260647      -279.2064
   9   2.0000     -10.258331      -279.1434
  10   2.0000     -10.229503      -278.3589
  11   2.0000     -10.221572      -278.1431
  12   2.0000     -10.220567      -278.1158
  13   2.0000     -10.214438      -277.9490
  14   2.0000      -1.064116       -28.9561
  15   2.0000      -1.036425       -28.2026
  16   2.0000      -1.027475       -27.9590
  17   2.0000      -0.962329       -26.1863
  18   2.0000      -0.926129       -25.2012
  19   2.0000      -0.890652       -24.2359
  20   2.0000      -0.783340       -21.3158
  21   2.0000      -0.724288       -19.7089
  22   2.0000      -0.720545       -19.6070
  23   2.0000      -0.701202       -19.0807
  24   2.0000      -0.649422       -17.6717
  25   2.0000      -0.636034       -17.3074
  26   2.0000      -0.596289       -16.2258
  27   2.0000      -0.573777       -15.6133
  28   2.0000      -0.526937       -14.3387
  29   2.0000      -0.504403       -13.7255
  30   2.0000      -0.502314       -13.6687
  31   2.0000      -0.474981       -12.9249
  32   2.0000      -0.472664       -12.8618
  33   2.0000      -0.455246       -12.3879
  34   2.0000      -0.450803       -12.2670
  35   2.0000      -0.446216       -12.1422
  36   2.0000      -0.437803       -11.9132
  37   2.0000      -0.425361       -11.5747
  38   2.0000      -0.410143       -11.1606
  39   2.0000      -0.409404       -11.1405
  40   2.0000      -0.394506       -10.7350
  41   2.0000      -0.391944       -10.6653
  42   2.0000      -0.390066       -10.6142
  43   2.0000      -0.388952       -10.5839
  44   2.0000      -0.320497        -8.7212
  45   2.0000      -0.305179        -8.3043
  46   2.0000      -0.294733        -8.0201
  47   2.0000      -0.283116        -7.7040
  48   2.0000      -0.271341        -7.3836
  49   2.0000      -0.268397        -7.3034
  50   2.0000      -0.222661        -6.0589
  51   0.0000      -0.033557        -0.9131
  52   0.0000       0.017253         0.4695
  53   0.0000       0.036942         1.0052
  54   0.0000       0.076235         2.0745
  55   0.0000       0.082567         2.2468

MULLIKEN ATOMIC CHARGES
-----------------------
   0 C :    0.137011
   1 N :   -0.189070
   2 C :    0.132565
   3 N :   -0.197769
   4 C :    0.068688
   5 C :   -0.006692
   6 C :    0.180520
   7 O :   -0.273640
   8 N :   -0.336375
   9 C :    0.270645
  10 O :   -0.308650
  11 N :   -0.252620
  12 C :    0.145147
  13 C :    0.150528
  14 H :    0.057924
  15 H :    0.057064
  16 H :    0.057064
  17 H :    0.055822
  18 H :    0.044961
  19 H :    0.045356
  20 H :    0.045346
  21 H :    0.038022
  22 H :    0.039077
  23 H :    0.039076
Sum of atomic charges:   -0.0000000

LOEWDIN ATOMIC CHARGES
----------------------
   0 C :    0.053215
   1 N :    0.070389
   2 C :    0.062037
   3 N :   -0.174077
   4 C :    0.025238
   5 C :   -0.097872
   6 C :    0.074065
   7 O :   -0.255772
   8 N :   -0.040427
   9 C :    0.106191
  10 O :   -0.263710
  11 N :   -0.010665
  12 C :    0.049481
  13 C :    0.043684
  14 H :    0.045446
  15 H :    0.040521
  16 H :    0.040521
  17 H :    0.038869
  18 H :    0.033785
  19 H :    0.034508
  20 H :    0.034507
  21 H :    0.027860
  22 H :    0.031103
  23 H :    0.031104

  Mayer bond orders larger than 0.100000
B(  0-C ,  1-N ) :   0.9444 B(  0-C , 14-H ) :   0.9667 B(  0-C , 15-H ) :   0.9690
B(  0-C , 16-H ) :   0.9690 B(  1-N ,  2-C ) :   1.3025 B(  1-N ,  5-C ) :   1.1541
B(  2-C ,  3-N ) :   1.5096 B(  2-C , 17-H ) :   0.9737 B(  3-N ,  4-C ) :   1.4367
B(  4-C ,  5-C ) :   1.3470 B(  4-C , 11-N ) :   1.1144 B(  5-C ,  6-C ) :   1.0495
B(  6-C ,  7-O ) :   2.0531 B(  6-C ,  8-N ) :   1.0447 B(  8-N ,  9-C ) :   1.0629
B(  8-N , 13-C ) :   0.9431 B(  9-C , 10-O ) :   1.9740 B(  9-C , 11-N ) :   1.1016
B( 11-N , 12-C ) :   0.9387 B( 12-C , 18-H ) :   0.9565 B( 12-C , 19-H ) :   0.9727
B( 12-C , 20-H ) :   0.9727 B( 13-C , 21-H ) :   0.9506 B( 13-C , 22-H ) :   0.9728
B( 13-C , 23-H ) :   0.9728

FINAL SINGLE POINT ENERGY      -679.523915764605

DIPOLE MOMENT
-------------
                                X             Y             Z
Electronic contribution:      0.53910       0.83745      -0.00139
Nuclear contribution   :     -1.62210       0.90330      -0.00079
                        -----------------------------------------
Total Dipole Moment    :     -1.08300       1.74075      -0.00218
                        -----------------------------------------
Magnitude (a.u.)       :      2.05015
Magnitude (Debye)      :      5.21107

Rotational constants in cm-1:     0.035308     0.023387     0.014183
Rotational constants in MHz :  1058.502408   701.119996   425.184388

                             ****ORCA TERMINATED NORMALLY****
TOTAL RUN TIME: 0 days 0 hours 57 minutes 46 seconds 713 msec
