                         Program Version 5.0.4 -  RELEASE  -
|  1> ## avogadro generated ORCA input file
|  2> # Advanced Mode
|  3> #
|  4> ! B3LYP OPT def2-SVP NormalPrint defgrid2 NormalSCF
|  5>
|  6> ! CPCM
|  7> %cpcm
|  8> epsilon 69.0
|  9> refrac 1.34
| 10> end
| 11>
| 12> %scf
| 13> 	MaxIter 125
| 14> 	CNVDIIS 1
| 15> 	CNVSOSCF 1
| 16> end
| 17>
| 18> * xyz 0 1
| 19>    C       -1.39938       -0.07701       -0.00209
| 20>    C       -0.76415        1.16039        0.00885
| 21>    C        0.62139        1.18599        0.01763
| 22>    N        1.39347        0.07748        0.01620
| 23>    C        0.74844       -1.10942        0.00549
| 24>    C       -0.63147       -1.23679       -0.00383
| 25>    H       -2.48382       -0.13699       -0.00919
| 26>    H       -1.33392        2.08257        0.01049
| 27>    H        1.16361        2.12708        0.02631
| 28>    H        1.39120       -1.98496        0.00456
| 29>    H       -1.09599       -2.21617       -0.01225
| 30> *
| 31>
| 32>
| 33>                          ****END OF INPUT****
 Total Charge           Charge          ....    0
 Multiplicity           Mult            ....    1
 Number of Electrons    NEL             ....   42
FINAL SINGLE POINT ENERGY      -247.956200625385
FINAL SINGLE POINT ENERGY      -247.957067980212
FINAL SINGLE POINT ENERGY      -247.957182351562
FINAL SINGLE POINT ENERGY      -247.957204552894
FINAL SINGLE POINT ENERGY      -247.957208846584
                    ***********************HURRAY********************

CARTESIAN COORDINATES (ANGSTROEM)
---------------------------------
  C     -1.411847   -0.077724   -0.002160
  C     -0.765379    1.161560    0.008830
  C      0.633683    1.183566    0.017706
  N      1.388841    0.077280    0.016192
  C      0.760641   -1.105669    0.005553
  C     -0.632433   -1.238075   -0.003837
  H     -2.503767   -0.138143   -0.009288
  H     -1.330727    2.096790    0.010520
  H      1.166218    2.142601    0.026464
  H      1.395619   -2.000240    0.004465
  H     -1.091469   -2.229776   -0.012274

 Multiplicity           Mult            ....    1
 Number of Electrons    NEL             ....   42
 Basis Dimension        Dim             ....  109

ORBITAL ENERGIES
----------------

  NO   OCC          E(Eh)            E(eV)
   0   2.0000     -14.323706      -389.7678
   1   2.0000     -10.221536      -278.1421
   2   2.0000     -10.221507      -278.1414
   3   2.0000     -10.205158      -277.6965
   4   2.0000     -10.195935      -277.4455
   5   2.0000     -10.195920      -277.4451
   6   2.0000      -0.933330       -25.3972
   7   2.0000      -0.793068       -21.5805
   8   2.0000      -0.751163       -20.4402
   9   2.0000      -0.622320       -16.9342
  10   2.0000      -0.618101       -16.8194
  11   2.0000      -0.522106       -14.2072
  12   2.0000      -0.480498       -13.0750
  13   2.0000      -0.459970       -12.5164
  14   2.0000      -0.425120       -11.5681
  15   2.0000      -0.400836       -10.9073
  16   2.0000      -0.400055       -10.8860
  17   2.0000      -0.361962        -9.8495
  18   2.0000      -0.291083        -7.9208
  19   2.0000      -0.265962        -7.2372
  20   2.0000      -0.259656        -7.0656
  21   0.0000      -0.029245        -0.7958
  22   0.0000      -0.017092        -0.4651
  23   0.0000       0.074299         2.0218
  24   0.0000       0.106904         2.9090
  25   0.0000       0.122620         3.3367

MULLIKEN ATOMIC CHARGES
-----------------------
   0 C :    0.043469
   1 C :   -0.016931
   2 C :    0.022340
   3 N :   -0.157225
   4 C :    0.022289
   5 C :   -0.017021
   6 H :    0.024801
   7 H :    0.019271
   8 H :    0.019847
   9 H :    0.019996
  10 H :    0.019164
Sum of atomic charges:   -0.0000000

LOEWDIN ATOMIC CHARGES
----------------------
   0 C :    0.006303
   1 C :   -0.042610
   2 C :    0.012450
   3 N :   -0.123062
   4 C :    0.012481
   5 C :   -0.042604
   6 H :    0.042305
   7 H :    0.041061
   8 H :    0.026318
   9 H :    0.026346
  10 H :    0.041014

  Mayer bond orders larger than 0.100000
B(  0-C ,  1-C ) :   1.4074 B(  0-C ,  5-C ) :   1.4077 B(  0-C ,  6-H ) :   0.9831
B(  1-C ,  2-C ) :   1.3976 B(  1-C ,  7-H ) :   0.9754 B(  2-C ,  3-N ) :   1.5136
B(  2-C ,  8-H ) :   0.9722 B(  3-N ,  4-C ) :   1.5135 B(  4-C ,  5-C ) :   1.3975
B(  4-C ,  9-H ) :   0.9722 B(  5-C , 10-H ) :   0.9753

FINAL SINGLE POINT ENERGY      -247.957209437780

DIPOLE MOMENT
-------------
                                X             Y             Z
Electronic contribution:      1.07120       0.05919       0.00699
Nuclear contribution   :     -2.21453      -0.12250      -0.01452
                        -----------------------------------------
Total Dipole Moment    :     -1.14333      -0.06331      -0.00753
                        -----------------------------------------
Magnitude (a.u.)       :      1.14510
Magnitude (Debye)      :      2.91062

Rotational constants in cm-1:     0.199738     0.193272     0.098226
Rotational constants in MHz :  5987.985792  5794.135700  2944.733025

                             ****ORCA TERMINATED NORMALLY****
TOTAL RUN TIME: 0 days 0 hours 12 minutes 36 seconds 601 msec
