                         Program Version 5.0.4 -  RELEASE  -
|  1> ## avogadro generated ORCA input file
|  2> # Advanced Mode
|  3> #
|  4> ! B3LYP OPT def2-SVP NormalPrint defgrid2 NormalSCF
|  5>
|  6> ! CPCM
|  7> %cpcm
|  8> epsilon 69.0
|  9> refrac 1.34
| 10> end
| 11>
| 12> %scf
| 13> 	MaxIter 125
| 14> 	CNVDIIS 1
| 15> 	CNVSOSCF 1
| 16> end
| 17>
| 18> * xyz 0 1
| 19>   Cl        1.07462        0.02040        0.07533
| 20>    H        2.38044        0.02040        0.07533
| 21> *
| 22>
| 23>
| 24>                          ****END OF INPUT****
 Total Charge           Charge          ....    0
 Multiplicity           Mult            ....    1
 Number of Electrons    NEL             ....   18
FINAL SINGLE POINT ENERGY      -460.605651914362
FINAL SINGLE POINT ENERGY      -460.605718993465
FINAL SINGLE POINT ENERGY      -460.605720872839
                    ***********************HURRAY********************

CARTESIAN COORDINATES (ANGSTROEM)
---------------------------------
  Cl     1.080206    0.020400    0.075330
  H      2.374854    0.020400    0.075330

 Multiplicity           Mult            ....    1
 Number of Electrons    NEL             ....   18
 Basis Dimension        Dim             ....   23

ORBITAL ENERGIES
----------------

  NO   OCC          E(Eh)            E(eV)
   0   2.0000    -101.492969     -2761.7641
   1   2.0000      -9.446821      -257.0611
   2   2.0000      -7.215665      -196.3482
   3   2.0000      -7.206186      -196.0903
   4   2.0000      -7.206186      -196.0903
   5   2.0000      -0.822080       -22.3699
   6   2.0000      -0.450028       -12.2459
   7   2.0000      -0.313769        -8.5381
   8   2.0000      -0.313769        -8.5381
   9   0.0000       0.042172         1.1476
  10   0.0000       0.344727         9.3805
  11   0.0000       0.528761        14.3883
  12   0.0000       0.705461        19.1966
  13   0.0000       0.705461        19.1966

MULLIKEN ATOMIC CHARGES
-----------------------
   0 Cl:   -0.182126
   1 H :    0.182126
Sum of atomic charges:   -0.0000000

LOEWDIN ATOMIC CHARGES
----------------------
   0 Cl:   -0.043148
   1 H :    0.043148

  Mayer bond orders larger than 0.100000
B(  0-Cl,  1-H ) :   0.9691

FINAL SINGLE POINT ENERGY      -460.605720874298

DIPOLE MOMENT
-------------
                                X             Y             Z
Electronic contribution:     -0.58465       0.00000      -0.00000
Nuclear contribution   :      1.22907       0.00000       0.00000
                        -----------------------------------------
Total Dipole Moment    :      0.64442       0.00000      -0.00000
                        -----------------------------------------
Magnitude (a.u.)       :      0.64442
Magnitude (Debye)      :      1.63799

Rotational constants in cm-1:     0.000000    10.261444    10.261444
Rotational constants in MHz :     0.000000 307630.340476 307630.340476

                             ****ORCA TERMINATED NORMALLY****
TOTAL RUN TIME: 0 days 0 hours 0 minutes 31 seconds 602 msec
