                         Program Version 5.0.4 -  RELEASE  -
|  1> ## avogadro generated ORCA input file
|  2> # Advanced Mode
|  3> #
|  4> ! B3LYP OPT def2-SVP NormalPrint defgrid2 NormalSCF
|  5>
|  6> ! CPCM
|  7> %cpcm
|  8> epsilon 69.0
|  9> refrac 1.34
| 10> end
| 11>
| 12> %scf
| 13> 	MaxIter 125
| 14> 	CNVDIIS 1
| 15> 	CNVSOSCF 1
| 16> end
| 17>
| 18> * xyz -8 1
| 19>   Na        0.87620       -0.20055        1.18261
| 20>   Cl        1.25819        0.32612       -1.13185
| 21> *
| 22>
| 23>
| 24>                          ****END OF INPUT****
 Total Charge           Charge          ....   -8
 Multiplicity           Mult            ....    1
 Number of Electrons    NEL             ....   36
FINAL SINGLE POINT ENERGY      -622.190911294583
FINAL SINGLE POINT ENERGY      -622.192111143092
FINAL SINGLE POINT ENERGY      -622.197707380754
FINAL SINGLE POINT ENERGY      -622.202253644387
FINAL SINGLE POINT ENERGY      -622.206789298147
FINAL SINGLE POINT ENERGY      -622.213580033927
FINAL SINGLE POINT ENERGY      -622.223514355287
FINAL SINGLE POINT ENERGY      -622.235051540477
FINAL SINGLE POINT ENERGY      -622.247725087935
FINAL SINGLE POINT ENERGY      -622.259928030152
FINAL SINGLE POINT ENERGY      -622.344143236173
FINAL SINGLE POINT ENERGY      -622.345872321137
FINAL SINGLE POINT ENERGY      -622.347021198824
FINAL SINGLE POINT ENERGY      -622.347756441089
FINAL SINGLE POINT ENERGY      -622.348170866191
FINAL SINGLE POINT ENERGY      -622.348318175821
FINAL SINGLE POINT ENERGY      -622.348339275843
FINAL SINGLE POINT ENERGY      -622.348343779046
FINAL SINGLE POINT ENERGY      -622.348344442096
                    ***********************HURRAY********************

CARTESIAN COORDINATES (ANGSTROEM)
---------------------------------
  Na     0.591148   -0.593567    2.909728
  Cl     1.543242    0.719137   -2.858968

 Multiplicity           Mult            ....    1
 Number of Electrons    NEL             ....   36
 Basis Dimension        Dim             ....   33

ORBITAL ENERGIES
----------------

  NO   OCC          E(Eh)            E(eV)
   0   2.0000    -101.309233     -2756.7644
   1   2.0000     -38.062094     -1035.7222
   2   2.0000      -9.260785      -251.9988
   3   2.0000      -7.023898      -191.1300
   4   2.0000      -7.023896      -191.1299
   5   2.0000      -7.023871      -191.1292
   6   2.0000      -1.859331       -50.5950
   7   2.0000      -0.793266       -21.5859
   8   2.0000      -0.793265       -21.5858
   9   2.0000      -0.793264       -21.5858
  10   2.0000      -0.620505       -16.8848
  11   2.0000      -0.173654        -4.7254
  12   2.0000      -0.173176        -4.7124
  13   2.0000      -0.173174        -4.7123
  14   2.0000      -0.059956        -1.6315
  15   2.0000       0.021996         0.5985
  16   2.0000       0.022883         0.6227
  17   2.0000       0.022888         0.6228
  18   0.0000       0.194753         5.2995
  19   0.0000       0.382967        10.4211
  20   0.0000       0.382975        10.4213
  21   0.0000       0.383075        10.4240
  22   0.0000       0.383092        10.4245

MULLIKEN ATOMIC CHARGES
-----------------------
   0 Na:   -7.000343
   1 Cl:   -0.999657
Sum of atomic charges:   -8.0000000

LOEWDIN ATOMIC CHARGES
----------------------
   0 Na:   -6.998371
   1 Cl:   -1.001629

FINAL SINGLE POINT ENERGY      -622.348344506442

DIPOLE MOMENT
-------------
                                X             Y             Z
Electronic contribution:      6.90603       9.52174     -41.84331
Nuclear contribution   :      0.02608       0.03595      -0.15799
                        -----------------------------------------
Total Dipole Moment    :      6.93211       9.55769     -42.00130
                        -----------------------------------------
Magnitude (a.u.)       :     43.62926
Magnitude (Debye)      :    110.89677

Rotational constants in cm-1:     0.000000     0.033663     0.033663
Rotational constants in MHz :     0.000000  1009.189629  1009.189629

                             ****ORCA TERMINATED NORMALLY****
TOTAL RUN TIME: 0 days 0 hours 5 minutes 31 seconds 785 msec
