                         Program Version 5.0.4 -  RELEASE  -
|  1> ## avogadro generated ORCA input file
|  2> # Advanced Mode
|  3> #
|  4> ! B3LYP OPT def2-SVP NormalPrint defgrid2 NormalSCF
|  5>
|  6> ! CPCM
|  7> %cpcm
|  8> epsilon 69.0
|  9> refrac 1.34
| 10> end
| 11>
| 12> %scf
| 13> 	MaxIter 125
| 14> 	CNVDIIS 1
| 15> 	CNVSOSCF 1
| 16> end
| 17>
| 18> * xyz 0 1
| 19>    C       -1.18910        0.00301        0.00007
| 20>    C       -0.34314        1.08661       -0.00013
| 21>    N        0.96604        0.67988        0.00007
| 22>    C        0.92136       -0.63244        0.00038
| 23>    N       -0.36604       -1.08899        0.00040
| 24>    H       -2.26610       -0.08224        0.00001
| 25>    H       -0.60557        2.13670       -0.00040
| 26>    H        1.77537       -1.29654        0.00061
| 27>    H       -0.65047       -2.05876        0.00061
| 28> *
| 29>
| 30>
| 31>                          ****END OF INPUT****
 Total Charge           Charge          ....    0
 Multiplicity           Mult            ....    1
 Number of Electrons    NEL             ....   36
FINAL SINGLE POINT ENERGY      -225.934931697997
FINAL SINGLE POINT ENERGY      -225.935307461351
FINAL SINGLE POINT ENERGY      -225.935322425790
FINAL SINGLE POINT ENERGY      -225.935326578798
                    ***********************HURRAY********************

CARTESIAN COORDINATES (ANGSTROEM)
---------------------------------
  C     -1.188097    0.005655    0.000069
  C     -0.343641    1.096173   -0.000132
  N      0.971076    0.683463    0.000076
  C      0.923369   -0.636610    0.000380
  N     -0.358969   -1.090801    0.000401
  H     -2.272077   -0.084926    0.000008
  H     -0.617582    2.151820   -0.000407
  H      1.778894   -1.313354    0.000609
  H     -0.650623   -2.064191    0.000615

 Multiplicity           Mult            ....    1
 Number of Electrons    NEL             ....   36
 Basis Dimension        Dim             ....   90

ORBITAL ENERGIES
----------------

  NO   OCC          E(Eh)            E(eV)
   0   2.0000     -14.376945      -391.2166
   1   2.0000     -14.304273      -389.2390
   2   2.0000     -10.232983      -278.4536
   3   2.0000     -10.208635      -277.7911
   4   2.0000     -10.193799      -277.3874
   5   2.0000      -1.001760       -27.2593
   6   2.0000      -0.855346       -23.2751
   7   2.0000      -0.729425       -19.8487
   8   2.0000      -0.601276       -16.3616
   9   2.0000      -0.581775       -15.8309
  10   2.0000      -0.550545       -14.9811
  11   2.0000      -0.434987       -11.8366
  12   2.0000      -0.429992       -11.7007
  13   2.0000      -0.428615       -11.6632
  14   2.0000      -0.403835       -10.9889
  15   2.0000      -0.284807        -7.7500
  16   2.0000      -0.274597        -7.4722
  17   2.0000      -0.231109        -6.2888
  18   0.0000       0.028164         0.7664
  19   0.0000       0.062144         1.6910
  20   0.0000       0.076574         2.0837
  21   0.0000       0.119157         3.2424
  22   0.0000       0.124734         3.3942

MULLIKEN ATOMIC CHARGES
-----------------------
   0 C :    0.016484
   1 C :   -0.032668
   2 N :   -0.242601
   3 C :    0.069491
   4 N :   -0.064563
   5 H :    0.031761
   6 H :    0.009677
   7 H :    0.037847
   8 H :    0.174572
Sum of atomic charges:   -0.0000000

LOEWDIN ATOMIC CHARGES
----------------------
   0 C :   -0.038700
   1 C :   -0.071311
   2 N :   -0.187910
   3 C :    0.003945
   4 N :    0.093982
   5 H :    0.035242
   6 H :    0.020441
   7 H :    0.027039
   8 H :    0.117272

  Mayer bond orders larger than 0.100000
B(  0-C ,  1-C ) :   1.5133 B(  0-C ,  4-N ) :   1.2183 B(  0-C ,  5-H ) :   0.9909
B(  1-C ,  2-N ) :   1.3742 B(  1-C ,  6-H ) :   0.9941 B(  2-N ,  3-C ) :   1.6090
B(  3-C ,  4-N ) :   1.2678 B(  3-C ,  7-H ) :   0.9786 B(  4-N ,  8-H ) :   0.9248

FINAL SINGLE POINT ENERGY      -225.935327031494

DIPOLE MOMENT
-------------
                                X             Y             Z
Electronic contribution:      0.52748      -0.48202       0.00016
Nuclear contribution   :     -1.62099      -1.15231       0.00015
                        -----------------------------------------
Total Dipole Moment    :     -1.09351      -1.63433       0.00031
                        -----------------------------------------
Magnitude (a.u.)       :      1.96642
Magnitude (Debye)      :      4.99825

Rotational constants in cm-1:     0.323984     0.312278     0.159012
Rotational constants in MHz :  9712.783827  9361.870116  4767.049558

                             ****ORCA TERMINATED NORMALLY****
TOTAL RUN TIME: 0 days 0 hours 5 minutes 12 seconds 919 msec
