                         Program Version 5.0.4 -  RELEASE  -
|  1> ## avogadro generated ORCA input file
|  2> # Advanced Mode
|  3> #
|  4> ! B3LYP OPT def2-SVP NormalPrint defgrid2 NormalSCF
|  5>
|  6> ! CPCM
|  7> %cpcm
|  8> epsilon 69.0
|  9> refrac 1.34
| 10> end
| 11>
| 12> %scf
| 13> 	MaxIter 125
| 14> 	CNVDIIS 1
| 15> 	CNVSOSCF 1
| 16> end
| 17>
| 18> * xyz 0 1
| 19>    N        1.54851        0.95823        0.08536
| 20>    H        2.56584        1.01585        0.07610
| 21>    H        1.23692        1.35055       -0.80197
| 22>    H        1.23691        1.60893        0.80499
| 23> *
| 24>
| 25>
| 26>                          ****END OF INPUT****
 Total Charge           Charge          ....    0
 Multiplicity           Mult            ....    1
 Number of Electrons    NEL             ....   10
FINAL SINGLE POINT ENERGY       -56.480251107397
FINAL SINGLE POINT ENERGY       -56.480389618624
FINAL SINGLE POINT ENERGY       -56.480479348048
                    ***********************HURRAY********************

CARTESIAN COORDINATES (ANGSTROEM)
---------------------------------
  N      1.540813    0.936764    0.088776
  H      2.561374    1.025470    0.074605
  H      1.242967    1.357495   -0.796598
  H      1.243026    1.613831    0.797697

 Multiplicity           Mult            ....    1
 Number of Electrons    NEL             ....   10
 Basis Dimension        Dim             ....   29

ORBITAL ENERGIES
----------------

  NO   OCC          E(Eh)            E(eV)
   0   2.0000     -14.294413      -388.9708
   1   2.0000      -0.824540       -22.4369
   2   2.0000      -0.436834       -11.8869
   3   2.0000      -0.436813       -11.8863
   4   2.0000      -0.258398        -7.0314
   5   0.0000       0.067766         1.8440
   6   0.0000       0.153884         4.1874
   7   0.0000       0.153904         4.1880
   8   0.0000       0.522064        14.2061
   9   0.0000       0.522130        14.2079

MULLIKEN ATOMIC CHARGES
-----------------------
   0 N :   -0.300109
   1 H :    0.100039
   2 H :    0.099975
   3 H :    0.100095
Sum of atomic charges:    0.0000000

LOEWDIN ATOMIC CHARGES
----------------------
   0 N :   -0.192947
   1 H :    0.064308
   2 H :    0.064299
   3 H :    0.064340

  Mayer bond orders larger than 0.100000
B(  0-N ,  1-H ) :   0.9923 B(  0-N ,  2-H ) :   0.9923 B(  0-N ,  3-H ) :   0.9923

FINAL SINGLE POINT ENERGY       -56.480479775032

DIPOLE MOMENT
-------------
                                X             Y             Z
Electronic contribution:     -0.05564      -0.15512       0.02490
Nuclear contribution   :      0.32773       0.91511      -0.14702
                        -----------------------------------------
Total Dipole Moment    :      0.27209       0.76000      -0.12213
                        -----------------------------------------
Magnitude (a.u.)       :      0.81642
Magnitude (Debye)      :      2.07518

Rotational constants in cm-1:     9.562282     9.560862     6.414166
Rotational constants in MHz : 286669.994608 286627.425967 192291.871510

                             ****ORCA TERMINATED NORMALLY****
TOTAL RUN TIME: 0 days 0 hours 0 minutes 53 seconds 987 msec
