                         Program Version 5.0.4 -  RELEASE  -
|  1> ## avogadro generated ORCA input file
|  2> # Advanced Mode
|  3> #
|  4> ! B3LYP OPT def2-SVP NormalPrint defgrid2 NormalSCF
|  5>
|  6> ! CPCM
|  7> %cpcm
|  8> epsilon 69.0
|  9> refrac 1.34
| 10> end
| 11>
| 12> %scf
| 13> 	MaxIter 125
| 14> 	CNVDIIS 1
| 15> 	CNVSOSCF 1
| 16> end
| 17>
| 18> * xyz -8 1
| 19>   Cl       -0.20836        0.62944       -0.33831
| 20>    K        2.20039       -0.69550        0.21473
| 21> *
| 22>
| 23>
| 24>                          ****END OF INPUT****
 Total Charge           Charge          ....   -8
 Multiplicity           Mult            ....    1
 Number of Electrons    NEL             ....   44
FINAL SINGLE POINT ENERGY     -1059.771146784051
FINAL SINGLE POINT ENERGY     -1059.772998306277
FINAL SINGLE POINT ENERGY     -1059.779104668540
FINAL SINGLE POINT ENERGY     -1059.784987403853
FINAL SINGLE POINT ENERGY     -1059.791851149098
FINAL SINGLE POINT ENERGY     -1059.798613252301
FINAL SINGLE POINT ENERGY     -1059.803966455233
FINAL SINGLE POINT ENERGY     -1059.809094277044
FINAL SINGLE POINT ENERGY     -1059.815878016287
FINAL SINGLE POINT ENERGY     -1059.823965163200
FINAL SINGLE POINT ENERGY     -1059.886908357727
FINAL SINGLE POINT ENERGY     -1059.887535455395
FINAL SINGLE POINT ENERGY     -1059.887995115035
FINAL SINGLE POINT ENERGY     -1059.888306796639
FINAL SINGLE POINT ENERGY     -1059.888511647271
FINAL SINGLE POINT ENERGY     -1059.888640833581
FINAL SINGLE POINT ENERGY     -1059.888714055682
FINAL SINGLE POINT ENERGY     -1059.888731525654
FINAL SINGLE POINT ENERGY     -1059.888731871413
                    ***********************HURRAY********************

CARTESIAN COORDINATES (ANGSTROEM)
---------------------------------
  Cl    -2.059627    1.647735   -0.763354
  K      4.051657   -1.713795    0.639774

 Multiplicity           Mult            ....    1
 Number of Electrons    NEL             ....   44
 Basis Dimension        Dim             ....   42

ORBITAL ENERGIES
----------------

  NO   OCC          E(Eh)            E(eV)
   0   2.0000    -129.354437     -3519.9132
   1   2.0000    -101.311120     -2756.8157
   2   2.0000     -12.815359      -348.7237
   3   2.0000     -10.158482      -276.4264
   4   2.0000     -10.158430      -276.4249
   5   2.0000     -10.158430      -276.4249
   6   2.0000      -9.262669      -252.0500
   7   2.0000      -7.025807      -191.1819
   8   2.0000      -7.025739      -191.1801
   9   2.0000      -7.025736      -191.1800
  10   2.0000      -1.037343       -28.2275
  11   2.0000      -0.622244       -16.9321
  12   2.0000      -0.412425       -11.2226
  13   2.0000      -0.412424       -11.2226
  14   2.0000      -0.412417       -11.2225
  15   2.0000      -0.174972        -4.7612
  16   2.0000      -0.174849        -4.7579
  17   2.0000      -0.174822        -4.7572
  18   2.0000      -0.040465        -1.1011
  19   2.0000       0.036430         0.9913
  20   2.0000       0.037020         1.0074
  21   2.0000       0.037035         1.0078
  22   0.0000       0.101848         2.7714
  23   0.0000       0.280978         7.6458
  24   0.0000       0.281114         7.6495
  25   0.0000       0.281119         7.6496
  26   0.0000       0.281157         7.6507

MULLIKEN ATOMIC CHARGES
-----------------------
   0 Cl:   -0.998680
   1 K :   -7.001320
Sum of atomic charges:   -8.0000000

LOEWDIN ATOMIC CHARGES
----------------------
   0 Cl:   -0.999963
   1 K :   -7.000037

FINAL SINGLE POINT ENERGY     -1059.888731824034

DIPOLE MOMENT
-------------
                                X             Y             Z
Electronic contribution:    -33.81712      18.60115      -7.76438
Nuclear contribution   :      1.37974      -0.75893       0.31678
                        -----------------------------------------
Total Dipole Moment    :    -32.43738      17.84222      -7.44760
                        -----------------------------------------
Magnitude (a.u.)       :     37.76235
Magnitude (Debye)      :     95.98425

Rotational constants in cm-1:     0.000000     0.017912     0.017912
Rotational constants in MHz :     0.000000   536.984002   536.984002

                             ****ORCA TERMINATED NORMALLY****
TOTAL RUN TIME: 0 days 0 hours 7 minutes 21 seconds 384 msec
