                         Program Version 5.0.4 -  RELEASE  -
|  1> ## avogadro generated ORCA input file
|  2> # Advanced Mode
|  3> #
|  4> ! B3LYP OPT def2-SVP NormalPrint defgrid2 NormalSCF
|  5>
|  6> ! CPCM
|  7> %cpcm
|  8> epsilon 69.0
|  9> refrac 1.34
| 10> end
| 11>
| 12> %scf
| 13> 	MaxIter 125
| 14> 	CNVDIIS 1
| 15> 	CNVSOSCF 1
| 16> end
| 17>
| 18> * xyz -8 1
| 19>   Mg        0.98774        0.06875        0.01937
| 20>   Cl       -0.83482        0.76590        0.83902
| 21>   Cl        2.81029       -0.62841       -0.80029
| 22> *
| 23>
| 24>
| 25>                          ****END OF INPUT****
 Total Charge           Charge          ....   -8
 Multiplicity           Mult            ....    1
 Number of Electrons    NEL             ....   54
FINAL SINGLE POINT ENERGY     -1120.007409567390
FINAL SINGLE POINT ENERGY     -1120.029495143071
FINAL SINGLE POINT ENERGY     -1120.061764507904
FINAL SINGLE POINT ENERGY     -1120.085326163839
FINAL SINGLE POINT ENERGY     -1120.104184404351
FINAL SINGLE POINT ENERGY     -1120.119545475206
FINAL SINGLE POINT ENERGY     -1120.132472164032
FINAL SINGLE POINT ENERGY     -1120.145449937095
FINAL SINGLE POINT ENERGY     -1120.161895949839
FINAL SINGLE POINT ENERGY     -1120.182090661353
FINAL SINGLE POINT ENERGY     -1120.347960424803
FINAL SINGLE POINT ENERGY     -1120.357277139699
FINAL SINGLE POINT ENERGY     -1120.363564056391
FINAL SINGLE POINT ENERGY     -1120.367755645867
FINAL SINGLE POINT ENERGY     -1120.370453668022
FINAL SINGLE POINT ENERGY     -1120.371929041421
FINAL SINGLE POINT ENERGY     -1120.372389993749
FINAL SINGLE POINT ENERGY     -1120.372421312808
FINAL SINGLE POINT ENERGY     -1120.372421228363
                    ***********************HURRAY********************

CARTESIAN COORDINATES (ANGSTROEM)
---------------------------------
  Mg     0.987745    0.068752    0.019380
  Cl    -3.121466    1.640575    1.867384
  Cl     5.096931   -1.503087   -1.828664

 Multiplicity           Mult            ....    1
 Number of Electrons    NEL             ....   54
 Basis Dimension        Dim             ....   54

ORBITAL ENERGIES
----------------

  NO   OCC          E(Eh)            E(eV)
   0   2.0000    -101.307611     -2756.7202
   1   2.0000    -101.307610     -2756.7202
   2   2.0000     -46.575456     -1267.3826
   3   2.0000      -9.259330      -251.9592
   4   2.0000      -9.259330      -251.9592
   5   2.0000      -7.022419      -191.0897
   6   2.0000      -7.022418      -191.0897
   7   2.0000      -7.022362      -191.0882
   8   2.0000      -7.022362      -191.0882
   9   2.0000      -7.022362      -191.0882
  10   2.0000      -7.022362      -191.0882
  11   2.0000      -2.878561       -78.3296
  12   2.0000      -1.624263       -44.1984
  13   2.0000      -1.624262       -44.1984
  14   2.0000      -1.624262       -44.1984
  15   2.0000      -0.619202       -16.8493
  16   2.0000      -0.619201       -16.8493
  17   2.0000      -0.176764        -4.8100
  18   2.0000      -0.175826        -4.7845
  19   2.0000      -0.171981        -4.6798
  20   2.0000      -0.171969        -4.6795
  21   2.0000      -0.171884        -4.6772
  22   2.0000      -0.171872        -4.6769
  23   2.0000      -0.124310        -3.3826
  24   2.0000      -0.022280        -0.6063
  25   2.0000      -0.015816        -0.4304
  26   2.0000      -0.015771        -0.4292
  27   0.0000       0.151708         4.1282
  28   0.0000       0.186679         5.0798
  29   0.0000       0.191559         5.2126
  30   0.0000       0.191592         5.2135
  31   0.0000       0.197896         5.3850

MULLIKEN ATOMIC CHARGES
-----------------------
   0 Mg:   -6.036714
   1 Cl:   -0.981643
   2 Cl:   -0.981643
Sum of atomic charges:   -8.0000000

LOEWDIN ATOMIC CHARGES
----------------------
   0 Mg:   -6.025930
   1 Cl:   -0.987035
   2 Cl:   -0.987035

FINAL SINGLE POINT ENERGY     -1120.372421181832

DIPOLE MOMENT
-------------
                                X             Y             Z
Electronic contribution:     -0.00010      -0.00006      -0.00015
Nuclear contribution   :      0.00001       0.00000       0.00001
                        -----------------------------------------
Total Dipole Moment    :     -0.00009      -0.00006      -0.00014
                        -----------------------------------------
Magnitude (a.u.)       :      0.00018
Magnitude (Debye)      :      0.00045

Rotational constants in cm-1: 1537307640.005968     0.010441     0.010441
Rotational constants in MHz : 46087323609956.828125   313.000961   313.000961

                             ****ORCA TERMINATED NORMALLY****
TOTAL RUN TIME: 0 days 0 hours 11 minutes 33 seconds 603 msec
