                         Program Version 5.0.4 -  RELEASE  -
|  1> ## avogadro generated ORCA input file
|  2> # Advanced Mode
|  3> #
|  4> ! B3LYP OPT def2-SVP NormalPrint defgrid2 NormalSCF
|  5>
|  6> ! CPCM
|  7> %cpcm
|  8> epsilon 69.0
|  9> refrac 1.34
| 10> end
| 11>
| 12> %scf
| 13> 	MaxIter 125
| 14> 	CNVDIIS 1
| 15> 	CNVSOSCF 1
| 16> end
| 17>
| 18> * xyz 0 1
| 19>    C        1.18197       -0.27323       -0.38025
| 20>    C        0.55045        0.93276        0.37559
| 21>    N       -0.91958        1.01780        0.27083
| 22>    C       -1.60088       -0.18436        0.81528
| 23>    C       -1.96559       -1.12979       -0.32652
| 24>    O       -1.53112       -2.26904       -0.42890
| 25>    O       -2.79975       -0.58075       -1.23991
| 26>    C       -1.42634        2.25989        0.89669
| 27>    C       -2.85285        2.55835        0.42098
| 28>    O       -3.49883        1.83006       -0.32548
| 29>    O       -3.35624        3.70895        0.91939
| 30>    N        2.66721       -0.30942       -0.55057
| 31>    C        3.38973       -0.09690        0.74759
| 32>    C        3.11594       -1.20189        1.76361
| 33>    O        3.13980       -1.03032        2.97314
| 34>    O        2.88392       -2.40778        1.19761
| 35>    C        3.06908        0.78721       -1.49668
| 36>    C        4.45206        0.51640       -2.08369
| 37>    O        5.23206        1.38452       -2.44074
| 38>    O        4.70611       -0.80923       -2.20910
| 39>    H        0.72955       -0.34713       -1.37832
| 40>    H        0.88628       -1.19649        0.12820
| 41>    H        0.96937        1.85234       -0.04882
| 42>    H        0.84237        0.90195        1.43259
| 43>    H       -2.53748        0.04953        1.33620
| 44>    H       -0.97993       -0.71416        1.54735
| 45>    H       -3.04676        0.35196       -1.01311
| 46>    H       -0.81554        3.11275        0.57793
| 47>    H       -1.41026        2.18937        1.98982
| 48>    H       -2.74924        4.21035        1.49707
| 49>    H        3.12837        0.86649        1.19846
| 50>    H        4.47221       -0.11072        0.57617
| 51>    H        2.83985       -2.31900        0.22314
| 52>    H        3.07589        1.76482       -1.00246
| 53>    H        2.38588        0.82602       -2.35329
| 54>    H        3.92994       -1.30462       -1.87159
| 55> *
| 56>
| 57>
| 58>                          ****END OF INPUT****
 Total Charge           Charge          ....    0
 Multiplicity           Mult            ....    1
 Number of Electrons    NEL             ....  154
FINAL SINGLE POINT ENERGY     -1100.663812414596
FINAL SINGLE POINT ENERGY     -1100.673974993077
FINAL SINGLE POINT ENERGY     -1100.674859423583
FINAL SINGLE POINT ENERGY     -1100.678171303221
FINAL SINGLE POINT ENERGY     -1100.678799415044
FINAL SINGLE POINT ENERGY     -1100.680270897563
FINAL SINGLE POINT ENERGY     -1100.680748337014
FINAL SINGLE POINT ENERGY     -1100.681051526067
FINAL SINGLE POINT ENERGY     -1100.681277543181
FINAL SINGLE POINT ENERGY     -1100.681362281612
FINAL SINGLE POINT ENERGY     -1100.681488295008
FINAL SINGLE POINT ENERGY     -1100.681497276780
FINAL SINGLE POINT ENERGY     -1100.681502153704
FINAL SINGLE POINT ENERGY     -1100.681529323150
FINAL SINGLE POINT ENERGY     -1100.681575401783
FINAL SINGLE POINT ENERGY     -1100.681588877124
FINAL SINGLE POINT ENERGY     -1100.681598070797
FINAL SINGLE POINT ENERGY     -1100.681604462540
FINAL SINGLE POINT ENERGY     -1100.681605353885
                    ***********************HURRAY********************

CARTESIAN COORDINATES (ANGSTROEM)
---------------------------------
  C      1.104499   -0.070488   -0.271852
  C      0.559266    1.075620    0.601992
  N     -0.900677    1.066234    0.658516
  C     -1.496378   -0.034657    1.392877
  C     -1.878044   -1.244637    0.529727
  O     -1.831943   -2.382453    0.947993
  O     -2.290940   -0.977914   -0.704312
  C     -1.574047    2.338936    0.719831
  C     -2.675419    2.475119   -0.329464
  O     -2.973693    1.599335   -1.118668
  O     -3.332722    3.630855   -0.356874
  N      2.570123   -0.103776   -0.453307
  C      3.326461   -0.455089    0.750433
  C      3.217428   -1.921612    1.162152
  O      3.547994   -2.312393    2.255766
  O      2.772591   -2.771948    0.229850
  C      3.101940    1.082401   -1.129231
  C      4.294592    0.788115   -2.038592
  O      5.089910    1.631534   -2.378891
  O      4.366027   -0.466446   -2.486954
  H      0.640951   -0.005754   -1.268613
  H      0.801247   -1.039757    0.154488
  H      0.873861    2.035453    0.167630
  H      0.998278    1.019261    1.619657
  H     -2.429512    0.298107    1.881435
  H     -0.838881   -0.409798    2.198173
  H     -2.349096    0.003103   -0.864334
  H     -0.861969    3.160400    0.535262
  H     -2.032043    2.553938    1.708152
  H     -3.008219    4.250178    0.320982
  H      3.069814    0.151366    1.637126
  H      4.400263   -0.284559    0.563184
  H      2.553410   -2.270801   -0.579477
  H      3.396765    1.895532   -0.443101
  H      2.322571    1.492424   -1.793246
  H      3.623242   -0.959139   -2.080101

 Multiplicity           Mult            ....    1
 Number of Electrons    NEL             ....  154
 Basis Dimension        Dim             ....  360

ORBITAL ENERGIES
----------------

  NO   OCC          E(Eh)            E(eV)
   0   2.0000     -19.191981      -522.2404
   1   2.0000     -19.182872      -521.9925
   2   2.0000     -19.178405      -521.8709
   3   2.0000     -19.160359      -521.3799
   4   2.0000     -19.142062      -520.8820
   5   2.0000     -19.123947      -520.3891
   6   2.0000     -19.122159      -520.3404
   7   2.0000     -19.112865      -520.0875
   8   2.0000     -14.357137      -390.6776
   9   2.0000     -14.335092      -390.0777
  10   2.0000     -10.331546      -281.1357
  11   2.0000     -10.322187      -280.8810
  12   2.0000     -10.318652      -280.7848
  13   2.0000     -10.308064      -280.4967
  14   2.0000     -10.235530      -278.5229
  15   2.0000     -10.233152      -278.4582
  16   2.0000     -10.231629      -278.4168
  17   2.0000     -10.224411      -278.2204
  18   2.0000     -10.220824      -278.1228
  19   2.0000     -10.217072      -278.0207
  20   2.0000      -1.108684       -30.1688
  21   2.0000      -1.097222       -29.8569
  22   2.0000      -1.094362       -29.7791
  23   2.0000      -1.079340       -29.3703
  24   2.0000      -1.024248       -27.8712
  25   2.0000      -1.012248       -27.5447
  26   2.0000      -1.009773       -27.4773
  27   2.0000      -0.994469       -27.0609
  28   2.0000      -0.942563       -25.6484
  29   2.0000      -0.927624       -25.2419
  30   2.0000      -0.765470       -20.8295
  31   2.0000      -0.751879       -20.4597
  32   2.0000      -0.747515       -20.3409
  33   2.0000      -0.705275       -19.1915
  34   2.0000      -0.654021       -17.7968
  35   2.0000      -0.630706       -17.1624
  36   2.0000      -0.614606       -16.7243
  37   2.0000      -0.609161       -16.5761
  38   2.0000      -0.602202       -16.3868
  39   2.0000      -0.596810       -16.2400
  40   2.0000      -0.542501       -14.7622
  41   2.0000      -0.535514       -14.5721
  42   2.0000      -0.530712       -14.4414
  43   2.0000      -0.520645       -14.1675
  44   2.0000      -0.509114       -13.8537
  45   2.0000      -0.501549       -13.6478
  46   2.0000      -0.488001       -13.2792
  47   2.0000      -0.479866       -13.0578
  48   2.0000      -0.469318       -12.7708
  49   2.0000      -0.466568       -12.6960
  50   2.0000      -0.458132       -12.4664
  51   2.0000      -0.457671       -12.4539
  52   2.0000      -0.448607       -12.2072
  53   2.0000      -0.445435       -12.1209
  54   2.0000      -0.437893       -11.9157
  55   2.0000      -0.434709       -11.8290
  56   2.0000      -0.424946       -11.5634
  57   2.0000      -0.413779       -11.2595
  58   2.0000      -0.402505       -10.9527
  59   2.0000      -0.392213       -10.6726
  60   2.0000      -0.388579       -10.5738
  61   2.0000      -0.385491       -10.4897
  62   2.0000      -0.382239       -10.4013
  63   2.0000      -0.378765       -10.3067
  64   2.0000      -0.371972       -10.1219
  65   2.0000      -0.366792        -9.9809
  66   2.0000      -0.351227        -9.5574
  67   2.0000      -0.337308        -9.1786
  68   2.0000      -0.324285        -8.8243
  69   2.0000      -0.322183        -8.7671
  70   2.0000      -0.310513        -8.4495
  71   2.0000      -0.302060        -8.2195
  72   2.0000      -0.290969        -7.9177
  73   2.0000      -0.282967        -7.6999
  74   2.0000      -0.279396        -7.6028
  75   2.0000      -0.255939        -6.9645
  76   2.0000      -0.223035        -6.0691
  77   0.0000      -0.005799        -0.1578
  78   0.0000      -0.005604        -0.1525
  79   0.0000       0.011765         0.3202
  80   0.0000       0.012107         0.3294
  81   0.0000       0.043172         1.1748

MULLIKEN ATOMIC CHARGES
-----------------------
   0 C :    0.099974
   1 C :    0.148356
   2 N :   -0.416322
   3 C :    0.145849
   4 C :    0.095036
   5 O :   -0.281575
   6 O :   -0.204992
   7 C :    0.118211
   8 C :    0.150487
   9 O :   -0.282413
  10 O :   -0.154626
  11 N :   -0.465932
  12 C :    0.137108
  13 C :    0.107391
  14 O :   -0.260535
  15 O :   -0.177094
  16 C :    0.132298
  17 C :    0.101697
  18 O :   -0.263828
  19 O :   -0.175641
  20 H :    0.029281
  21 H :    0.028446
  22 H :    0.033813
  23 H :    0.018364
  24 H :    0.067131
  25 H :    0.025998
  26 H :    0.199951
  27 H :    0.074395
  28 H :    0.061844
  29 H :    0.232039
  30 H :    0.049586
  31 H :    0.078927
  32 H :    0.213705
  33 H :    0.048755
  34 H :    0.083169
  35 H :    0.201143
Sum of atomic charges:   -0.0000000

LOEWDIN ATOMIC CHARGES
----------------------
   0 C :    0.021525
   1 C :    0.035596
   2 N :   -0.119684
   3 C :    0.003882
   4 C :    0.059751
   5 O :   -0.240628
   6 O :   -0.052547
   7 C :    0.003984
   8 C :    0.097404
   9 O :   -0.191142
  10 O :   -0.013395
  11 N :   -0.126760
  12 C :    0.001754
  13 C :    0.076746
  14 O :   -0.215930
  15 O :   -0.030812
  16 C :    0.005884
  17 C :    0.070848
  18 O :   -0.220039
  19 O :   -0.035008
  20 H :    0.030335
  21 H :    0.019743
  22 H :    0.031674
  23 H :    0.015377
  24 H :    0.055403
  25 H :    0.033201
  26 H :    0.060252
  27 H :    0.058655
  28 H :    0.044624
  29 H :    0.132628
  30 H :    0.037752
  31 H :    0.059973
  32 H :    0.097651
  33 H :    0.037809
  34 H :    0.062327
  35 H :    0.091166

  Mayer bond orders larger than 0.100000
B(  0-C ,  1-C ) :   1.0763 B(  0-C , 11-N ) :   0.9730 B(  0-C , 20-H ) :   0.9333
B(  0-C , 21-H ) :   0.9341 B(  1-C ,  2-N ) :   0.9918 B(  1-C , 22-H ) :   0.9324
B(  1-C , 23-H ) :   0.9304 B(  2-N ,  3-C ) :   0.9835 B(  2-N ,  7-C ) :   1.0287
B(  3-C ,  4-C ) :   0.9687 B(  3-C , 24-H ) :   0.9160 B(  3-C , 25-H ) :   0.9159
B(  4-C ,  5-O ) :   2.0736 B(  4-C ,  6-O ) :   1.2935 B(  6-O , 26-H ) :   0.8658
B(  7-C ,  8-C ) :   0.9622 B(  7-C , 27-H ) :   0.9181 B(  7-C , 28-H ) :   0.9133
B(  8-C ,  9-O ) :   1.9486 B(  8-C , 10-O ) :   1.2871 B(  9-O , 26-H ) :   0.1509
B( 10-O , 29-H ) :   0.9309 B( 11-N , 12-C ) :   0.9501 B( 11-N , 16-C ) :   0.9672
B( 12-C , 13-C ) :   0.9569 B( 12-C , 30-H ) :   0.9204 B( 12-C , 31-H ) :   0.9206
B( 13-C , 14-O ) :   2.1040 B( 13-C , 15-O ) :   1.2482 B( 15-O , 32-H ) :   0.9147
B( 16-C , 17-C ) :   0.9636 B( 16-C , 33-H ) :   0.9238 B( 16-C , 34-H ) :   0.9181
B( 17-C , 18-O ) :   2.1027 B( 17-C , 19-O ) :   1.2648 B( 19-O , 35-H ) :   0.9117

FINAL SINGLE POINT ENERGY     -1100.681605705845

DIPOLE MOMENT
-------------
                                X             Y             Z
Electronic contribution:     -0.65191      -4.32189      -4.06845
Nuclear contribution   :     -0.63309       8.99926       5.25781
                        -----------------------------------------
Total Dipole Moment    :     -1.28500       4.67737       1.18936
                        -----------------------------------------
Magnitude (a.u.)       :      4.99435
Magnitude (Debye)      :     12.69464

Rotational constants in cm-1:     0.013786     0.006088     0.004859
Rotational constants in MHz :   413.284047   182.506007   145.655692

                             ****ORCA TERMINATED NORMALLY****
TOTAL RUN TIME: 0 days 3 hours 34 minutes 33 seconds 56 msec
