                         Program Version 5.0.4 -  RELEASE  -
|  1> ## avogadro generated ORCA input file
|  2> # Advanced Mode
|  3> #
|  4> ! B3LYP OPT def2-SVP NormalPrint defgrid2 NormalSCF
|  5>
|  6> ! CPCM
|  7> %cpcm
|  8> epsilon 69.0
|  9> refrac 1.34
| 10> end
| 11>
| 12> %scf
| 13> 	MaxIter 125
| 14> 	CNVDIIS 1
| 15> 	CNVSOSCF 1
| 16> end
| 17>
| 18> * xyz -9 1
| 19>    O        1.42950        1.52917       -0.23411
| 20>   Al        3.00447        1.29892        0.15508
| 21>    O        3.10965        0.24469        1.40509
| 22>   Na        0.86215       -1.64443        0.04450
| 23>    H        3.78350        0.70698       -1.10726
| 24> *
| 25>
| 26>
| 27>                          ****END OF INPUT****
 Total Charge           Charge          ....   -9
 Multiplicity           Mult            ....    1
 Number of Electrons    NEL             ....   50
 Basis Dimension        Dim             ....   66

ORBITAL ENERGIES
----------------

  NO   OCC          E(Eh)            E(eV)
   0   2.0000     -55.763977     -1517.4150
   1   2.0000     -38.135960     -1037.7322
   2   2.0000     -18.857113      -513.1281
   3   2.0000     -18.856609      -513.1144
   4   2.0000      -3.873934      -105.4151
   5   2.0000      -2.432496       -66.1916
   6   2.0000      -2.428594       -66.0854
   7   2.0000      -2.427045       -66.0433
   8   2.0000      -1.916303       -52.1453
   9   2.0000      -0.851835       -23.1796
  10   2.0000      -0.849208       -23.1081
  11   2.0000      -0.848680       -23.0937
  12   2.0000      -0.649476       -17.6731
  13   2.0000      -0.628266       -17.0960
  14   2.0000      -0.227817        -6.1992
  15   2.0000      -0.139916        -3.8073
  16   2.0000      -0.115004        -3.1294
  17   2.0000      -0.102188        -2.7807
  18   2.0000      -0.087010        -2.3677
  19   2.0000      -0.063446        -1.7265
  20   2.0000      -0.056264        -1.5310
  21   2.0000      -0.045861        -1.2479
  22   2.0000      -0.000484        -0.0132
  23   2.0000       0.024832         0.6757
  24   2.0000       0.033726         0.9177
  25   0.0000       0.126648         3.4463
  26   0.0000       0.149129         4.0580
  27   0.0000       0.179425         4.8824
  28   0.0000       0.192752         5.2451
  29   0.0000       0.242646         6.6027

MULLIKEN ATOMIC CHARGES
-----------------------
   0 O :   -0.863623
   1 Al:   -1.171929
   2 O :   -0.862859
   3 Na:   -5.459413
   4 H :   -0.642175
Sum of atomic charges:   -9.0000000

LOEWDIN ATOMIC CHARGES
----------------------
   0 O :   -0.735641
   1 Al:   -1.768780
   2 O :   -0.734338
   3 Na:   -5.301288
   4 H :   -0.459954

  Mayer bond orders larger than 0.100000
B(  0-O ,  1-Al) :   1.4872 B(  0-O ,  3-Na) :   0.2529 B(  1-Al,  2-O ) :   1.4897
B(  1-Al,  4-H ) :   0.2688 B(  2-O ,  3-Na) :   0.2537

FINAL SINGLE POINT ENERGY      -555.569051203960
FINAL SINGLE POINT ENERGY      -555.585718326374
FINAL SINGLE POINT ENERGY      -555.602558311550
FINAL SINGLE POINT ENERGY      -555.613242622551
FINAL SINGLE POINT ENERGY      -555.620845825483
FINAL SINGLE POINT ENERGY      -555.627622031251
FINAL SINGLE POINT ENERGY      -555.634340957478
FINAL SINGLE POINT ENERGY      -555.641168156003
FINAL SINGLE POINT ENERGY      -555.648009294451
FINAL SINGLE POINT ENERGY      -555.654766036294
FINAL SINGLE POINT ENERGY      -555.734833929186
FINAL SINGLE POINT ENERGY      -555.735149108015
FINAL SINGLE POINT ENERGY      -555.735427696666
FINAL SINGLE POINT ENERGY      -555.735637494675
FINAL SINGLE POINT ENERGY      -555.735724420674
FINAL SINGLE POINT ENERGY      -555.736009263542
FINAL SINGLE POINT ENERGY      -555.736439281320
FINAL SINGLE POINT ENERGY      -555.736624201191
FINAL SINGLE POINT ENERGY      -555.736823737393

CARTESIAN COORDINATES (ANGSTROEM)
---------------------------------
  O      1.482392    1.870760    0.006201
  Al     2.752218    2.107154    1.125774
  O      3.233177    0.992573    2.330008
  Na     0.157010   -2.726964   -0.268457
  H      4.564474   -0.108193   -2.930226

FINAL SINGLE POINT ENERGY      -555.737016971367

DIPOLE MOMENT
-------------
                                X             Y             Z
Electronic contribution:      3.15864      21.88304      17.36335
Nuclear contribution   :      3.41361       0.99301      -2.93364
                        -----------------------------------------
Total Dipole Moment    :      6.57225      22.87606      14.42971
                        -----------------------------------------
Magnitude (a.u.)       :     27.83388
Magnitude (Debye)      :     70.74810

Rotational constants in cm-1:     0.185370     0.033817     0.030683
Rotational constants in MHz :  5557.238967  1013.810425   919.838547

                             ****ORCA TERMINATED NORMALLY****
TOTAL RUN TIME: 0 days 0 hours 36 minutes 8 seconds 223 msec
