                         Program Version 5.0.4 -  RELEASE  -
|  1> ## avogadro generated ORCA input file
|  2> # Advanced Mode
|  3> #
|  4> ! B3LYP OPT def2-SVP NormalPrint defgrid2 NormalSCF
|  5>
|  6> ! CPCM
|  7> %cpcm
|  8> epsilon 69.0
|  9> refrac 1.34
| 10> end
| 11>
| 12> %scf
| 13> 	MaxIter 125
| 14> 	CNVDIIS 1
| 15> 	CNVSOSCF 1
| 16> end
| 17>
| 18> * xyz -2 1
| 19>    O        1.22699       -0.35236       -0.51172
| 20>    S        2.69438       -0.26533       -0.37923
| 21>    O        3.57892       -0.77816       -1.35021
| 22>    O        2.66737        1.16041        0.00143
| 23>    O        2.68771       -0.73374        1.02038
| 24>   Fe        1.26574        0.56298        1.18903
| 25> *
| 26>
| 27>
| 28>                          ****END OF INPUT****
 Total Charge           Charge          ....   -2
 Multiplicity           Mult            ....    1
 Number of Electrons    NEL             ....   76
 Basis Dimension        Dim             ....  105

ORBITAL ENERGIES
----------------

  NO   OCC          E(Eh)            E(eV)
   0   2.0000    -255.990158     -6965.8463
   1   2.0000     -89.056440     -2423.3489
   2   2.0000     -29.944684      -814.8363
   3   2.0000     -25.818249      -702.5503
   4   2.0000     -25.813466      -702.4201
   5   2.0000     -25.813463      -702.4201
   6   2.0000     -19.119651      -520.2722
   7   2.0000     -19.072959      -519.0016
   8   2.0000     -19.072841      -518.9984
   9   2.0000     -19.072796      -518.9972
  10   2.0000      -8.118603      -220.9184
  11   2.0000      -6.087321      -165.6444
  12   2.0000      -6.086398      -165.6193
  13   2.0000      -6.086394      -165.6192
  14   2.0000      -3.358310       -91.3842
  15   2.0000      -2.141563       -58.2749
  16   2.0000      -2.125865       -57.8477
  17   2.0000      -2.125853       -57.8474
  18   2.0000      -1.161400       -31.6033
  19   2.0000      -1.019029       -27.7292
  20   2.0000      -0.939443       -25.5635
  21   2.0000      -0.939382       -25.5619
  22   2.0000      -0.549029       -14.9398
  23   2.0000      -0.470093       -12.7919
  24   2.0000      -0.464275       -12.6336
  25   2.0000      -0.464189       -12.6312
  26   2.0000      -0.377330       -10.2677
  27   2.0000      -0.365505        -9.9459
  28   2.0000      -0.365465        -9.9448
  29   2.0000      -0.323095        -8.7919
  30   2.0000      -0.323062        -8.7910
  31   2.0000      -0.262512        -7.1433
  32   2.0000      -0.262489        -7.1427
  33   2.0000      -0.217241        -5.9114
  34   2.0000      -0.179936        -4.8963
  35   2.0000      -0.169603        -4.6151
  36   2.0000      -0.169575        -4.6144
  37   2.0000      -0.086890        -2.3644
  38   0.0000       0.003885         0.1057
  39   0.0000       0.003912         0.1064
  40   0.0000       0.114655         3.1199
  41   0.0000       0.143387         3.9018
  42   0.0000       0.168184         4.5765

MULLIKEN ATOMIC CHARGES
-----------------------
   0 O :   -0.571949
   1 S :    1.089504
   2 O :   -0.469102
   3 O :   -0.572354
   4 O :   -0.572752
   5 Fe:   -0.903347
Sum of atomic charges:   -2.0000000

LOEWDIN ATOMIC CHARGES
----------------------
   0 O :   -0.501854
   1 S :    1.088383
   2 O :   -0.510563
   3 O :   -0.502127
   4 O :   -0.502423
   5 Fe:   -1.071416

  Mayer bond orders larger than 0.100000
B(  0-O ,  1-S ) :   1.3118 B(  0-O ,  5-Fe) :   0.5209 B(  1-S ,  2-O ) :   1.7810
B(  1-S ,  3-O ) :   1.3113 B(  1-S ,  4-O ) :   1.3108 B(  3-O ,  5-Fe) :   0.5209
B(  4-O ,  5-Fe) :   0.5208

FINAL SINGLE POINT ENERGY     -1962.027857220222
FINAL SINGLE POINT ENERGY     -1962.059205987399
FINAL SINGLE POINT ENERGY     -1962.073989529717
FINAL SINGLE POINT ENERGY     -1962.076625498739
FINAL SINGLE POINT ENERGY     -1962.078074898099
FINAL SINGLE POINT ENERGY     -1962.080003584877
FINAL SINGLE POINT ENERGY     -1962.081654520309
FINAL SINGLE POINT ENERGY     -1962.082313063344
FINAL SINGLE POINT ENERGY     -1962.082590495190
FINAL SINGLE POINT ENERGY     -1962.082833432385
FINAL SINGLE POINT ENERGY     -1962.108383452530
FINAL SINGLE POINT ENERGY     -1962.108400015009
FINAL SINGLE POINT ENERGY     -1962.108429609936
FINAL SINGLE POINT ENERGY     -1962.108506656952
FINAL SINGLE POINT ENERGY     -1962.108528022207
FINAL SINGLE POINT ENERGY     -1962.103880362832
FINAL SINGLE POINT ENERGY     -1962.109158285718
FINAL SINGLE POINT ENERGY     -1962.109436507197
FINAL SINGLE POINT ENERGY     -1962.109995430412

CARTESIAN COORDINATES (ANGSTROEM)
---------------------------------
  O      1.377918   -0.585680   -1.449894
  S      2.449780   -0.204015   -0.495084
  O      3.776494   -0.762398   -0.901600
  O      2.506228    1.290154   -0.230835
  O      2.092385   -0.799298    0.915500
  Fe     1.918306    0.655037    2.131593

FINAL SINGLE POINT ENERGY     -1962.110116012710

DIPOLE MOMENT
-------------
                                X             Y             Z
Electronic contribution:      0.99330       2.43970       5.63307
Nuclear contribution   :      1.01606      -2.00368      -5.83564
                        -----------------------------------------
Total Dipole Moment    :      2.00936       0.43602      -0.20257
                        -----------------------------------------
Magnitude (a.u.)       :      2.06607
Magnitude (Debye)      :      5.25154

Rotational constants in cm-1:     0.176558     0.046288     0.046073
Rotational constants in MHz :  5293.067040  1387.688557  1381.245766

                             ****ORCA TERMINATED NORMALLY****
TOTAL RUN TIME: 0 days 1 hours 35 minutes 34 seconds 233 msec
