                         Program Version 5.0.4 -  RELEASE  -
|  1> ## avogadro generated ORCA input file
|  2> # Advanced Mode
|  3> #
|  4> ! B3LYP OPT def2-SVP NormalPrint defgrid2 NormalSCF
|  5>
|  6> ! CPCM
|  7> %cpcm
|  8> epsilon 69.0
|  9> refrac 1.34
| 10> end
| 11>
| 12> %scf
| 13> 	MaxIter 125
| 14> 	CNVDIIS 1
| 15> 	CNVSOSCF 1
| 16> end
| 17>
| 18> * xyz 0 1
| 19>    C        1.68964        0.62504        0.70123
| 20>    C        2.55752       -0.62848        0.77281
| 21>    N        2.75927       -1.24197       -0.55493
| 22>    C        1.55914       -1.99687       -0.96696
| 23>    C        1.50936       -2.21868       -2.47625
| 24>    C        3.94786       -2.11786       -0.54809
| 25>    C        5.24854       -1.32280       -0.62382
| 26>    H        2.10248        1.34770       -0.01073
| 27>    H        1.65393        1.10804        1.68354
| 28>    H        0.65953        0.40370        0.40903
| 29>    H        3.51413       -0.30983        1.20047
| 30>    H        2.12724       -1.34855        1.48039
| 31>    H        1.49501       -2.95710       -0.43955
| 32>    H        0.64870       -1.44382       -0.71250
| 33>    H        2.30784       -2.87754       -2.82813
| 34>    H        1.58398       -1.26802       -3.01500
| 35>    H        0.55685       -2.68393       -2.75156
| 36>    H        3.94598       -2.77835       -1.42175
| 37>    H        3.95292       -2.77147        0.33344
| 38>    H        5.25141       -0.65754       -1.49388
| 39>    H        6.09679       -2.00811       -0.72546
| 40>    H        5.42208       -0.71961        0.27147
| 41> *
| 42>
| 43>
| 44>                          ****END OF INPUT****
 Total Charge           Charge          ....    0
 Multiplicity           Mult            ....    1
 Number of Electrons    NEL             ....   58
FINAL SINGLE POINT ENERGY      -291.992284653559
FINAL SINGLE POINT ENERGY      -291.994410183551
FINAL SINGLE POINT ENERGY      -291.994863086192
FINAL SINGLE POINT ENERGY      -291.994937382382
FINAL SINGLE POINT ENERGY      -291.994974148953
FINAL SINGLE POINT ENERGY      -291.994998823151
FINAL SINGLE POINT ENERGY      -291.995010624438
FINAL SINGLE POINT ENERGY      -291.995013780540
                    ***********************HURRAY********************

CARTESIAN COORDINATES (ANGSTROEM)
---------------------------------
  C      1.701773    0.642088    0.696149
  C      2.534952   -0.636645    0.783456
  N      2.749294   -1.291334   -0.510134
  C      1.564462   -2.021434   -0.969586
  C      1.501980   -2.200144   -2.486392
  C      3.957662   -2.120676   -0.522077
  C      5.252570   -1.317652   -0.647923
  H      2.182235    1.372235    0.024353
  H      1.600758    1.102177    1.692955
  H      0.684589    0.452256    0.316995
  H      3.519578   -0.377289    1.202154
  H      2.071138   -1.339241    1.514439
  H      1.488305   -3.014799   -0.469120
  H      0.672911   -1.458565   -0.652837
  H      2.345827   -2.794763   -2.872229
  H      1.520201   -1.220693   -2.991954
  H      0.573985   -2.721796   -2.773173
  H      3.894032   -2.806350   -1.381131
  H      4.003519   -2.771865    0.381722
  H      5.242554   -0.710047   -1.567705
  H      6.121499   -1.994995   -0.688914
  H      5.406376   -0.636519    0.204721

 Multiplicity           Mult            ....    1
 Number of Electrons    NEL             ....   58
 Basis Dimension        Dim             ....  173

ORBITAL ENERGIES
----------------

  NO   OCC          E(Eh)            E(eV)
   0   2.0000     -14.303590      -389.2205
   1   2.0000     -10.197868      -277.4981
   2   2.0000     -10.197802      -277.4963
   3   2.0000     -10.197745      -277.4948
   4   2.0000     -10.169461      -276.7251
   5   2.0000     -10.169425      -276.7241
   6   2.0000     -10.169412      -276.7238
   7   2.0000      -0.902001       -24.5447
   8   2.0000      -0.743108       -20.2210
   9   2.0000      -0.743068       -20.2199
  10   2.0000      -0.689885       -18.7727
  11   2.0000      -0.606492       -16.5035
  12   2.0000      -0.606367       -16.5001
  13   2.0000      -0.546228       -14.8636
  14   2.0000      -0.468088       -12.7373
  15   2.0000      -0.468057       -12.7365
  16   2.0000      -0.444208       -12.0875
  17   2.0000      -0.424164       -11.5421
  18   2.0000      -0.424163       -11.5421
  19   2.0000      -0.388231       -10.5643
  20   2.0000      -0.373192       -10.1551
  21   2.0000      -0.366469        -9.9721
  22   2.0000      -0.366398        -9.9702
  23   2.0000      -0.344736        -9.3807
  24   2.0000      -0.344668        -9.3789
  25   2.0000      -0.342287        -9.3141
  26   2.0000      -0.318648        -8.6708
  27   2.0000      -0.318538        -8.6679
  28   2.0000      -0.206779        -5.6267
  29   0.0000       0.065002         1.7688
  30   0.0000       0.081087         2.2065
  31   0.0000       0.081175         2.2089
  32   0.0000       0.091087         2.4786
  33   0.0000       0.120701         3.2844

MULLIKEN ATOMIC CHARGES
-----------------------
   0 C :    0.008866
   1 C :    0.106130
   2 N :   -0.397381
   3 C :    0.106796
   4 C :    0.008527
   5 C :    0.105839
   6 C :    0.008694
   7 H :    0.007274
   8 H :    0.012067
   9 H :    0.015219
  10 H :    0.007587
  11 H :   -0.024785
  12 H :   -0.024818
  13 H :    0.007616
  14 H :    0.015258
  15 H :    0.007132
  16 H :    0.012076
  17 H :    0.007812
  18 H :   -0.024302
  19 H :    0.007121
  20 H :    0.012061
  21 H :    0.015212
Sum of atomic charges:   -0.0000000

LOEWDIN ATOMIC CHARGES
----------------------
   0 C :   -0.065281
   1 C :    0.028234
   2 N :   -0.148873
   3 C :    0.028279
   4 C :   -0.065340
   5 C :    0.028234
   6 C :   -0.065329
   7 H :    0.020085
   8 H :    0.026891
   9 H :    0.020927
  10 H :    0.020123
  11 H :   -0.001316
  12 H :   -0.001333
  13 H :    0.020183
  14 H :    0.020879
  15 H :    0.020015
  16 H :    0.026892
  17 H :    0.020124
  18 H :   -0.001144
  19 H :    0.020051
  20 H :    0.026816
  21 H :    0.020882

  Mayer bond orders larger than 0.100000
B(  0-C ,  1-C ) :   1.1129 B(  0-C ,  7-H ) :   0.9649 B(  0-C ,  8-H ) :   0.9585
B(  0-C ,  9-H ) :   0.9627 B(  1-C ,  2-N ) :   0.9891 B(  1-C , 10-H ) :   0.9458
B(  1-C , 11-H ) :   0.9233 B(  2-N ,  3-C ) :   0.9891 B(  2-N ,  5-C ) :   0.9887
B(  3-C ,  4-C ) :   1.1127 B(  3-C , 12-H ) :   0.9233 B(  3-C , 13-H ) :   0.9458
B(  4-C , 14-H ) :   0.9627 B(  4-C , 15-H ) :   0.9649 B(  4-C , 16-H ) :   0.9586
B(  5-C ,  6-C ) :   1.1128 B(  5-C , 17-H ) :   0.9459 B(  5-C , 18-H ) :   0.9233
B(  6-C , 19-H ) :   0.9649 B(  6-C , 20-H ) :   0.9586 B(  6-C , 21-H ) :   0.9628

FINAL SINGLE POINT ENERGY      -291.995014410079

DIPOLE MOMENT
-------------
                                X             Y             Z
Electronic contribution:     -0.09093      -0.43433       0.39350
Nuclear contribution   :      0.04083       0.20257      -0.18235
                        -----------------------------------------
Total Dipole Moment    :     -0.05010      -0.23175       0.21115
                        -----------------------------------------
Magnitude (a.u.)       :      0.31750
Magnitude (Debye)      :      0.80701

Rotational constants in cm-1:     0.076264     0.076183     0.043638
Rotational constants in MHz :  2286.349753  2283.918699  1308.243490

                             ****ORCA TERMINATED NORMALLY****
TOTAL RUN TIME: 0 days 0 hours 42 minutes 34 seconds 809 msec
