                         Program Version 5.0.4 -  RELEASE  -
|  1> ## avogadro generated ORCA input file
|  2> # Advanced Mode
|  3> #
|  4> ! B3LYP OPT def2-SVP NormalPrint defgrid2 NormalSCF
|  5>
|  6> ! CPCM
|  7> %cpcm
|  8> epsilon 69.0
|  9> refrac 1.34
| 10> end
| 11>
| 12> %scf
| 13> 	MaxIter 125
| 14> 	CNVDIIS 1
| 15> 	CNVSOSCF 1
| 16> end
| 17>
| 18> * xyz 0 1
| 19>    C       -0.75978        1.16699        0.00561
| 20>    C        0.61593        1.18874        0.01205
| 21>    N        1.37744        0.07879        0.01509
| 22>    C        0.70755       -1.08447        0.01141
| 23>    N       -0.62713       -1.22766        0.00510
| 24>    C       -1.33512       -0.08283        0.00232
| 25>    H       -1.34976        2.07226        0.00327
| 26>    H        1.16307        2.12690        0.01505
| 27>    H        1.29961       -1.99293        0.01375
| 28>    H       -2.41431       -0.20461       -0.00278
| 29> *
| 30>
| 31>
| 32>                          ****END OF INPUT****
 Total Charge           Charge          ....    0
 Multiplicity           Mult            ....    1
 Number of Electrons    NEL             ....   42
FINAL SINGLE POINT ENERGY      -263.980095500872
FINAL SINGLE POINT ENERGY      -263.981537808403
FINAL SINGLE POINT ENERGY      -263.981687250689
FINAL SINGLE POINT ENERGY      -263.981703846170
FINAL SINGLE POINT ENERGY      -263.981707770487
                    ***********************HURRAY********************

CARTESIAN COORDINATES (ANGSTROEM)
---------------------------------
  C     -0.756374    1.161749    0.005615
  C      0.639415    1.194610    0.012176
  N      1.375881    0.076168    0.015097
  C      0.703670   -1.078429    0.011348
  N     -0.624040   -1.227249    0.005110
  C     -1.349984   -0.101971    0.002260
  H     -1.352412    2.076630    0.003222
  H      1.179573    2.148906    0.015155
  H      1.302932   -1.998207    0.013771
  H     -2.441161   -0.211028   -0.002883

 Multiplicity           Mult            ....    1
 Number of Electrons    NEL             ....   42
 Basis Dimension        Dim             ....  104

ORBITAL ENERGIES
----------------

  NO   OCC          E(Eh)            E(eV)
   0   2.0000     -14.334470      -390.0607
   1   2.0000     -14.334457      -390.0604
   2   2.0000     -10.256614      -279.0967
   3   2.0000     -10.240513      -278.6585
   4   2.0000     -10.240403      -278.6555
   5   2.0000     -10.205166      -277.6967
   6   2.0000      -0.981672       -26.7126
   7   2.0000      -0.883530       -24.0421
   8   2.0000      -0.785261       -21.3680
   9   2.0000      -0.651931       -17.7400
  10   2.0000      -0.651792       -17.7362
  11   2.0000      -0.533634       -14.5209
  12   2.0000      -0.517430       -14.0800
  13   2.0000      -0.460677       -12.5357
  14   2.0000      -0.430602       -11.7173
  15   2.0000      -0.418418       -11.3857
  16   2.0000      -0.411369       -11.1939
  17   2.0000      -0.323100        -8.7920
  18   2.0000      -0.304290        -8.2802
  19   2.0000      -0.290153        -7.8955
  20   2.0000      -0.258373        -7.0307
  21   0.0000      -0.045221        -1.2305
  22   0.0000      -0.033617        -0.9148
  23   0.0000       0.082229         2.2376
  24   0.0000       0.117375         3.1939
  25   0.0000       0.120960         3.2915

MULLIKEN ATOMIC CHARGES
-----------------------
   0 C :   -0.023055
   1 C :    0.067613
   2 N :   -0.171932
   3 C :    0.082351
   4 N :   -0.172423
   5 C :    0.067674
   6 H :    0.036546
   7 H :    0.038542
   8 H :    0.036071
   9 H :    0.038614
Sum of atomic charges:    0.0000000

LOEWDIN ATOMIC CHARGES
----------------------
   0 C :   -0.050779
   1 C :    0.053779
   2 N :   -0.123923
   3 C :    0.045938
   4 N :   -0.124072
   5 C :    0.053713
   6 H :    0.049287
   7 H :    0.035821
   8 H :    0.024425
   9 H :    0.035809

  Mayer bond orders larger than 0.100000
B(  0-C ,  1-C ) :   1.3991 B(  0-C ,  5-C ) :   1.3992 B(  0-C ,  6-H ) :   0.9711
B(  1-C ,  2-N ) :   1.5041 B(  1-C ,  7-H ) :   0.9752 B(  2-N ,  3-C ) :   1.4995
B(  3-C ,  4-N ) :   1.4995 B(  3-C ,  8-H ) :   0.9691 B(  4-N ,  5-C ) :   1.5040
B(  5-C ,  9-H ) :   0.9750

FINAL SINGLE POINT ENERGY      -263.981708227670

DIPOLE MOMENT
-------------
                                X             Y             Z
Electronic contribution:      0.57290      -0.87736       0.00225
Nuclear contribution   :     -1.22784       1.88372      -0.00484
                        -----------------------------------------
Total Dipole Moment    :     -0.65494       1.00637      -0.00259
                        -----------------------------------------
Magnitude (a.u.)       :      1.20072
Magnitude (Debye)      :      3.05198

Rotational constants in cm-1:     0.207964     0.202641     0.102634
Rotational constants in MHz :  6234.591098  6075.025729  3076.887110

                             ****ORCA TERMINATED NORMALLY****
TOTAL RUN TIME: 0 days 0 hours 12 minutes 2 seconds 291 msec
