                         Program Version 5.0.4 -  RELEASE  -
|  1> ## avogadro generated ORCA input file
|  2> # Advanced Mode
|  3> #
|  4> ! B3LYP OPT def2-SVP NormalPrint defgrid2 NormalSCF
|  5>
|  6> ! CPCM
|  7> %cpcm
|  8> epsilon 69.0
|  9> refrac 1.34
| 10> end
| 11>
| 12> %scf
| 13> 	MaxIter 125
| 14> 	CNVDIIS 1
| 15> 	CNVSOSCF 1
| 16> end
| 17>
| 18> * xyz 0 1
| 19>    C        1.38002        0.95096        1.01517
| 20>    N        2.22562        0.05960        0.21226
| 21>    C        3.42430        0.77786       -0.25449
| 22>    C        4.47647        0.62436        0.83831
| 23>    C        3.95081       -0.47531        1.75354
| 24>    C        2.78062       -1.08664        0.97719
| 25>    H        3.22020       -1.77614        0.23919
| 26>    C        1.77704       -1.92045        1.73633
| 27>    C        0.68767       -2.46884        1.05666
| 28>    N       -0.25785       -3.25731        1.62106
| 29>    C       -0.11559       -3.52289        2.93436
| 30>    C        0.92890       -3.04242        3.70444
| 31>    C        1.88840       -2.23635        3.09396
| 32>    H        1.04437        1.79598        0.40272
| 33>    H        1.88719        1.35726        1.89673
| 34>    H        0.46892        0.44257        1.34609
| 35>    H        3.23603        1.82718       -0.50820
| 36>    H        3.78163        0.29565       -1.17310
| 37>    H        4.60502        1.55513        1.40149
| 38>    H        5.44629        0.35182        0.40873
| 39>    H        3.63197       -0.02805        2.70254
| 40>    H        4.72507       -1.21596        1.98087
| 41>    H        0.54036       -2.27468       -0.00396
| 42>    H       -0.88594       -4.15520        3.36562
| 43>    H        0.99816       -3.29333        4.75692
| 44>    H        2.71547       -1.87017        3.69458
| 45> *
| 46>
| 47>
| 48>                          ****END OF INPUT****
 Total Charge           Charge          ....    0
 Multiplicity           Mult            ....    1
 Number of Electrons    NEL             ....   88
FINAL SINGLE POINT ENERGY      -498.294226159436
FINAL SINGLE POINT ENERGY      -498.297836857781
FINAL SINGLE POINT ENERGY      -498.298336949588
FINAL SINGLE POINT ENERGY      -498.298412026393
FINAL SINGLE POINT ENERGY      -498.298439082882
FINAL SINGLE POINT ENERGY      -498.298451602400
FINAL SINGLE POINT ENERGY      -498.298463543566
FINAL SINGLE POINT ENERGY      -498.298474294641
FINAL SINGLE POINT ENERGY      -498.298481474948
FINAL SINGLE POINT ENERGY      -498.298484145822
                    ***********************HURRAY********************

CARTESIAN COORDINATES (ANGSTROEM)
---------------------------------
  C      1.363977    0.942408    0.994698
  N      2.222347    0.045252    0.220689
  C      3.427901    0.720176   -0.280957
  C      4.487732    0.664716    0.861227
  C      3.983506   -0.469767    1.789611
  C      2.799035   -1.077885    0.995770
  H      3.242185   -1.752780    0.237560
  C      1.780956   -1.908052    1.750235
  C      0.643530   -2.391545    1.075313
  N     -0.294286   -3.160968    1.633251
  C     -0.139875   -3.501710    2.920987
  C      0.949682   -3.088213    3.688934
  C      1.923202   -2.278866    3.093072
  H      1.008343    1.751412    0.337405
  H      1.856759    1.416104    1.870220
  H      0.478906    0.402417    1.362536
  H      3.190919    1.742348   -0.610736
  H      3.801284    0.164525   -1.158414
  H      4.547165    1.621212    1.402646
  H      5.491064    0.458469    0.457885
  H      3.640107   -0.062874    2.753625
  H      4.756095   -1.222139    2.009527
  H      0.498521   -2.123355    0.021683
  H     -0.918677   -4.136070    3.361455
  H      1.035859   -3.393909    4.734635
  H      2.784913   -1.946278    3.676152

 Multiplicity           Mult            ....    1
 Number of Electrons    NEL             ....   88
 Basis Dimension        Dim             ....  238

ORBITAL ENERGIES
----------------

  NO   OCC          E(Eh)            E(eV)
   0   2.0000     -14.322615      -389.7382
   1   2.0000     -14.310415      -389.4062
   2   2.0000     -10.218465      -278.0586
   3   2.0000     -10.218113      -278.0490
   4   2.0000     -10.212326      -277.8915
   5   2.0000     -10.201721      -277.6029
   6   2.0000     -10.200087      -277.5585
   7   2.0000     -10.197601      -277.4908
   8   2.0000     -10.196088      -277.4497
   9   2.0000     -10.194242      -277.3994
  10   2.0000     -10.174910      -276.8734
  11   2.0000     -10.173494      -276.8348
  12   2.0000      -0.933721       -25.4078
  13   2.0000      -0.918752       -25.0005
  14   2.0000      -0.800080       -21.7713
  15   2.0000      -0.761792       -20.7294
  16   2.0000      -0.755409       -20.5557
  17   2.0000      -0.698982       -19.0203
  18   2.0000      -0.671971       -18.2853
  19   2.0000      -0.622237       -16.9319
  20   2.0000      -0.619054       -16.8453
  21   2.0000      -0.562792       -15.3144
  22   2.0000      -0.553727       -15.0677
  23   2.0000      -0.516783       -14.0624
  24   2.0000      -0.488267       -13.2864
  25   2.0000      -0.476347       -12.9621
  26   2.0000      -0.469856       -12.7854
  27   2.0000      -0.454529       -12.3684
  28   2.0000      -0.436700       -11.8832
  29   2.0000      -0.419497       -11.4151
  30   2.0000      -0.400164       -10.8890
  31   2.0000      -0.397190       -10.8081
  32   2.0000      -0.393713       -10.7135
  33   2.0000      -0.392652       -10.6846
  34   2.0000      -0.371030       -10.0962
  35   2.0000      -0.351076        -9.5533
  36   2.0000      -0.344354        -9.3703
  37   2.0000      -0.340333        -9.2609
  38   2.0000      -0.335486        -9.1290
  39   2.0000      -0.313299        -8.5253
  40   2.0000      -0.287520        -7.8238
  41   2.0000      -0.257929        -7.0186
  42   2.0000      -0.256816        -6.9883
  43   2.0000      -0.215107        -5.8534
  44   0.0000      -0.027039        -0.7358
  45   0.0000      -0.019199        -0.5224
  46   0.0000       0.057338         1.5603
  47   0.0000       0.076135         2.0717
  48   0.0000       0.082718         2.2509

MULLIKEN ATOMIC CHARGES
-----------------------
   0 C :    0.120342
   1 N :   -0.394395
   2 C :    0.155880
   3 C :    0.000115
   4 C :    0.053704
   5 C :    0.076897
   6 H :    0.014643
   7 C :   -0.054053
   8 C :    0.019716
   9 N :   -0.147575
  10 C :    0.020932
  11 C :   -0.005462
  12 C :    0.023177
  13 H :    0.019684
  14 H :   -0.003975
  15 H :    0.021808
  16 H :    0.007587
  17 H :   -0.001637
  18 H :    0.005548
  19 H :    0.003951
  20 H :    0.012705
  21 H :    0.008218
  22 H :   -0.001103
  23 H :    0.016501
  24 H :    0.012857
  25 H :    0.013934
Sum of atomic charges:   -0.0000000

LOEWDIN ATOMIC CHARGES
----------------------
   0 C :    0.010896
   1 N :   -0.147964
   2 C :    0.031146
   3 C :   -0.045140
   4 C :   -0.039427
   5 C :    0.028834
   6 H :    0.033474
   7 C :   -0.042035
   8 C :    0.017985
   9 N :   -0.119560
  10 C :    0.006605
  11 C :   -0.041569
  12 C :    0.002945
  13 H :    0.023334
  14 H :    0.002307
  15 H :    0.019508
  16 H :    0.021019
  17 H :    0.017035
  18 H :    0.023051
  19 H :    0.024443
  20 H :    0.021853
  21 H :    0.026295
  22 H :    0.020010
  23 H :    0.025121
  24 H :    0.040450
  25 H :    0.039384

  Mayer bond orders larger than 0.100000
B(  0-C ,  1-N ) :   1.0052 B(  0-C , 13-H ) :   0.9722 B(  0-C , 14-H ) :   0.9517
B(  0-C , 15-H ) :   0.9671 B(  1-N ,  2-C ) :   1.0218 B(  1-N ,  5-C ) :   1.0103
B(  2-C ,  3-C ) :   1.1008 B(  2-C , 16-H ) :   0.9464 B(  2-C , 17-H ) :   0.9315
B(  3-C ,  4-C ) :   1.1305 B(  3-C , 18-H ) :   0.9293 B(  3-C , 19-H ) :   0.9285
B(  4-C ,  5-C ) :   1.1054 B(  4-C , 20-H ) :   0.9141 B(  4-C , 21-H ) :   0.9210
B(  5-C ,  6-H ) :   0.8844 B(  5-C ,  7-C ) :   0.9612 B(  7-C ,  8-C ) :   1.3654
B(  7-C , 12-C ) :   1.4366 B(  8-C ,  9-N ) :   1.5363 B(  8-C , 22-H ) :   0.9728
B(  9-N , 10-C ) :   1.4974 B( 10-C , 11-C ) :   1.4076 B( 10-C , 23-H ) :   0.9716
B( 11-C , 12-C ) :   1.3753 B( 11-C , 24-H ) :   0.9702 B( 12-C , 25-H ) :   0.9777

FINAL SINGLE POINT ENERGY      -498.298484410242

DIPOLE MOMENT
-------------
                                X             Y             Z
Electronic contribution:     -6.20577      -8.85505       1.84271
Nuclear contribution   :      7.50277       9.51109      -1.00968
                        -----------------------------------------
Total Dipole Moment    :      1.29700       0.65604       0.83303
                        -----------------------------------------
Magnitude (a.u.)       :      1.67527
Magnitude (Debye)      :      4.25820

Rotational constants in cm-1:     0.074208     0.019697     0.017438
Rotational constants in MHz :  2224.703390   590.500155   522.776372

                             ****ORCA TERMINATED NORMALLY****
TOTAL RUN TIME: 0 days 1 hours 18 minutes 39 seconds 530 msec
