                         Program Version 5.0.4 -  RELEASE  -
|  1> ## avogadro generated ORCA input file
|  2> # Advanced Mode
|  3> #
|  4> ! B3LYP OPT def2-SVP NormalPrint defgrid2 NormalSCF
|  5>
|  6> ! CPCM
|  7> %cpcm
|  8> epsilon 69.0
|  9> refrac 1.34
| 10> end
| 11>
| 12> %scf
| 13> 	MaxIter 125
| 14> 	CNVDIIS 1
| 15> 	CNVSOSCF 1
| 16> end
| 17>
| 18> * xyz -10 1
| 19>    O        0.94589        0.28295       -0.27855
| 20>    S        2.35329       -0.04652       -0.03314
| 21>    O        3.13555        1.14196       -0.38683
| 22>    O        2.56563       -0.41079        1.37105
| 23>    O        2.76606       -1.20020       -0.83822
| 24>    K        1.27513        2.57149       -1.06637
| 25>    K        3.43120       -2.66461        1.00015
| 26> *
| 27>
| 28>
| 29>                          ****END OF INPUT****
 Total Charge           Charge          ....  -10
 Multiplicity           Mult            ....    1
 Number of Electrons    NEL             ....   96
 Basis Dimension        Dim             ....  122

ORBITAL ENERGIES
----------------

  NO   OCC          E(Eh)            E(eV)
   0   2.0000    -129.480358     -3523.3397
   1   2.0000    -129.479470     -3523.3155
   2   2.0000     -88.941579     -2420.2234
   3   2.0000     -18.957312      -515.8547
   4   2.0000     -18.957047      -515.8475
   5   2.0000     -18.956903      -515.8436
   6   2.0000     -18.956393      -515.8297
   7   2.0000     -12.924255      -351.6869
   8   2.0000     -12.923437      -351.6646
   9   2.0000     -10.269676      -279.4521
  10   2.0000     -10.268846      -279.4295
  11   2.0000     -10.267949      -279.4051
  12   2.0000     -10.267142      -279.3831
  13   2.0000     -10.266235      -279.3584
  14   2.0000     -10.265414      -279.3361
  15   2.0000      -7.997373      -217.6196
  16   2.0000      -5.966156      -162.3473
  17   2.0000      -5.966151      -162.3472
  18   2.0000      -5.965895      -162.3402
  19   2.0000      -1.125968       -30.6392
  20   2.0000      -1.125191       -30.6180
  21   2.0000      -1.010650       -27.5012
  22   2.0000      -0.838934       -22.8286
  23   2.0000      -0.829642       -22.5757
  24   2.0000      -0.829537       -22.5729
  25   2.0000      -0.503338       -13.6965
  26   2.0000      -0.501905       -13.6575
  27   2.0000      -0.501155       -13.6371
  28   2.0000      -0.496032       -13.4977
  29   2.0000      -0.495047       -13.4709
  30   2.0000      -0.494376       -13.4527
  31   2.0000      -0.415136       -11.2964
  32   2.0000      -0.340026        -9.2526
  33   2.0000      -0.336420        -9.1545
  34   2.0000      -0.336290        -9.1509
  35   2.0000      -0.219381        -5.9697
  36   2.0000      -0.218802        -5.9539
  37   2.0000      -0.206032        -5.6064
  38   2.0000      -0.205997        -5.6055
  39   2.0000      -0.195610        -5.3228
  40   2.0000      -0.129387        -3.5208
  41   2.0000      -0.129286        -3.5181
  42   2.0000      -0.128217        -3.4890
  43   2.0000      -0.031267        -0.8508
  44   2.0000      -0.029404        -0.8001
  45   2.0000       0.030279         0.8239
  46   2.0000       0.030476         0.8293
  47   2.0000       0.052123         1.4183
  48   0.0000       0.080674         2.1953
  49   0.0000       0.080860         2.2003
  50   0.0000       0.093251         2.5375
  51   0.0000       0.123587         3.3630
  52   0.0000       0.137302         3.7362

MULLIKEN ATOMIC CHARGES
-----------------------
   0 O :   -0.650650
   1 S :    1.288328
   2 O :   -0.650042
   3 O :   -0.651854
   4 O :   -0.647938
   5 K :   -4.336048
   6 K :   -4.351795
Sum of atomic charges:  -10.0000000

LOEWDIN ATOMIC CHARGES
----------------------
   0 O :   -0.577453
   1 S :    1.175393
   2 O :   -0.578727
   3 O :   -0.576476
   4 O :   -0.579412
   5 K :   -4.424181
   6 K :   -4.439143

  Mayer bond orders larger than 0.100000
B(  0-O ,  1-S ) :   1.4187 B(  0-O ,  5-K ) :   0.2134 B(  1-S ,  2-O ) :   1.4196
B(  1-S ,  3-O ) :   1.4174 B(  1-S ,  4-O ) :   1.4225 B(  1-S ,  5-K ) :  -0.1324
B(  1-S ,  6-K ) :  -0.1347 B(  2-O ,  5-K ) :   0.2101 B(  3-O ,  6-K ) :   0.2164
B(  4-O ,  6-K ) :   0.2055 B(  5-K ,  6-K ) :   1.1716

FINAL SINGLE POINT ENERGY     -1898.236624830769
FINAL SINGLE POINT ENERGY     -1898.249978080919
FINAL SINGLE POINT ENERGY     -1898.262720861926
FINAL SINGLE POINT ENERGY     -1898.273244488861
FINAL SINGLE POINT ENERGY     -1898.281527356230
FINAL SINGLE POINT ENERGY     -1898.291412847396
FINAL SINGLE POINT ENERGY     -1898.299752276165
FINAL SINGLE POINT ENERGY     -1898.305631434827
FINAL SINGLE POINT ENERGY     -1898.311072419527
FINAL SINGLE POINT ENERGY     -1898.316235723677
FINAL SINGLE POINT ENERGY     -1898.356270771192
FINAL SINGLE POINT ENERGY     -1898.356398455930
FINAL SINGLE POINT ENERGY     -1898.356445843454
FINAL SINGLE POINT ENERGY     -1898.356457310908
FINAL SINGLE POINT ENERGY     -1898.356459744707
FINAL SINGLE POINT ENERGY     -1898.356463605973
FINAL SINGLE POINT ENERGY     -1898.356467065174
FINAL SINGLE POINT ENERGY     -1898.356487818630
FINAL SINGLE POINT ENERGY     -1898.356509832945

CARTESIAN COORDINATES (ANGSTROEM)
---------------------------------
  O      0.886974    0.065995   -0.105113
  S      2.374987   -0.171949    0.064485
  O      3.147587    1.097672   -0.223753
  O      2.635072   -0.608840    1.500550
  O      2.805756   -1.271666   -0.897137
  K      0.895471    3.815731   -1.698607
  K      3.726904   -3.252662    1.127665

FINAL SINGLE POINT ENERGY     -1898.356542209024

DIPOLE MOMENT
-------------
                                X             Y             Z
Electronic contribution:      4.79221     -13.62782       6.67402
Nuclear contribution   :      0.07315      -0.54002       0.41227
                        -----------------------------------------
Total Dipole Moment    :      4.86536     -14.16784       7.08628
                        -----------------------------------------
Magnitude (a.u.)       :     16.57151
Magnitude (Debye)      :     42.12143

Rotational constants in cm-1:     0.166257     0.011710     0.011694
Rotational constants in MHz :  4984.255808   351.049467   350.571930

                             ****ORCA TERMINATED NORMALLY****
TOTAL RUN TIME: 0 days 1 hours 23 minutes 23 seconds 678 msec
