                         Program Version 5.0.4 -  RELEASE  -
|  1> ## avogadro generated ORCA input file
|  2> # Advanced Mode
|  3> #
|  4> ! B3LYP OPT def2-SVP NormalPrint defgrid2 NormalSCF
|  5>
|  6> ! CPCM
|  7> %cpcm
|  8> epsilon 69.0
|  9> refrac 1.34
| 10> end
| 11>
| 12> %scf
| 13> 	MaxIter 125
| 14> 	CNVDIIS 1
| 15> 	CNVSOSCF 1
| 16> end
| 17>
| 18> * xyz -8 1
| 19>    O        1.51284        0.24924       -0.16499
| 20>    H        1.96802        0.91454       -0.65415
| 21>   Na        0.55637       -1.14894        0.86301
| 22> *
| 23>
| 24>
| 25>                          ****END OF INPUT****
 Total Charge           Charge          ....   -8
 Multiplicity           Mult            ....    1
 Number of Electrons    NEL             ....   28
FINAL SINGLE POINT ENERGY      -237.800013013585
FINAL SINGLE POINT ENERGY      -237.804002856971
FINAL SINGLE POINT ENERGY      -237.806838514294
FINAL SINGLE POINT ENERGY      -237.813927101180
FINAL SINGLE POINT ENERGY      -237.822815384890
FINAL SINGLE POINT ENERGY      -237.832031235655
FINAL SINGLE POINT ENERGY      -237.841728507882
FINAL SINGLE POINT ENERGY      -237.850746960123
FINAL SINGLE POINT ENERGY      -237.859157613002
FINAL SINGLE POINT ENERGY      -237.869778324628
FINAL SINGLE POINT ENERGY      -237.968091398307
FINAL SINGLE POINT ENERGY      -237.968091958818
FINAL SINGLE POINT ENERGY      -237.968093530472
FINAL SINGLE POINT ENERGY      -237.968097127291
FINAL SINGLE POINT ENERGY      -237.968106633631
FINAL SINGLE POINT ENERGY      -237.968116187812
FINAL SINGLE POINT ENERGY      -237.968120538740
FINAL SINGLE POINT ENERGY      -237.968121976790
FINAL SINGLE POINT ENERGY      -237.968122040351
                    ***********************HURRAY********************

CARTESIAN COORDINATES (ANGSTROEM)
---------------------------------
  O      1.970551    1.114703   -0.819082
  H      2.603550    1.723801   -1.253848
  Na    -0.536871   -2.823664    2.116800

 Multiplicity           Mult            ....    1
 Number of Electrons    NEL             ....   28
 Basis Dimension        Dim             ....   34

ORBITAL ENERGIES
----------------

  NO   OCC          E(Eh)            E(eV)
   0   2.0000     -38.062223     -1035.7257
   1   2.0000     -18.901291      -514.3303
   2   2.0000      -1.859426       -50.5976
   3   2.0000      -0.793367       -21.5886
   4   2.0000      -0.793351       -21.5882
   5   2.0000      -0.793351       -21.5882
   6   2.0000      -0.718526       -19.5521
   7   2.0000      -0.239154        -6.5077
   8   2.0000      -0.096024        -2.6129
   9   2.0000      -0.095922        -2.6102
  10   2.0000      -0.059567        -1.6209
  11   2.0000       0.021939         0.5970
  12   2.0000       0.023159         0.6302
  13   2.0000       0.023165         0.6303
  14   0.0000       0.148400         4.0382
  15   0.0000       0.197233         5.3670
  16   0.0000       0.383003        10.4220
  17   0.0000       0.383131        10.4255
  18   0.0000       0.383134        10.4256

MULLIKEN ATOMIC CHARGES
-----------------------
   0 O :   -1.013105
   1 H :    0.005575
   2 Na:   -6.992469
Sum of atomic charges:   -8.0000000

LOEWDIN ATOMIC CHARGES
----------------------
   0 O :   -0.936851
   1 H :   -0.073937
   2 Na:   -6.989213

  Mayer bond orders larger than 0.100000
B(  0-O ,  1-H ) :   1.0383

FINAL SINGLE POINT ENERGY      -237.968122119820

DIPOLE MOMENT
-------------
                                X             Y             Z
Electronic contribution:      8.87901      14.01768     -10.45342
Nuclear contribution   :      2.94283       4.26129      -3.15853
                        -----------------------------------------
Total Dipole Moment    :     11.82184      18.27897     -13.61194
                        -----------------------------------------
Magnitude (a.u.)       :     25.67414
Magnitude (Debye)      :     65.25849

Rotational constants in cm-1:   362.071661     0.055391     0.055382
Rotational constants in MHz : 10854635.314384  1660.575311  1660.321310

                             ****ORCA TERMINATED NORMALLY****
TOTAL RUN TIME: 0 days 0 hours 9 minutes 46 seconds 292 msec
